 Entering Gaussian System, Link 0=/mlatom/software/Gaussian/g16-avx2/g16
 Input=gaussian.com
 Output=gaussian.log
 Initial command:
 /mlatom/software/Gaussian/g16-avx2/l1.exe "/mlatom/home/fatemealavi/anharmonic/ANI_1ccx_CH3NO2_new_model/CH3NO2_ANI_1ccx_TLOnMP2_SP_energyShifter_FixL1and3/freq_CH3NO2_by_TL_ani_1ccx/Gau-194124.inp" -scrdir="/mlatom/home/fatemealavi/anharmonic/ANI_1ccx_CH3NO2_new_model/CH3NO2_ANI_1ccx_TLOnMP2_SP_energyShifter_FixL1and3/freq_CH3NO2_by_TL_ani_1ccx/"
 Entering Link 1 = /mlatom/software/Gaussian/g16-avx2/l1.exe PID=    194125.
  
 Copyright (c) 1988,1990,1992,1993,1995,1998,2003,2009,2016,
            Gaussian, Inc.  All Rights Reserved.
  
 This is part of the Gaussian(R) 16 program.  It is based on
 the Gaussian(R) 09 system (copyright 2009, Gaussian, Inc.),
 the Gaussian(R) 03 system (copyright 2003, Gaussian, Inc.),
 the Gaussian(R) 98 system (copyright 1998, Gaussian, Inc.),
 the Gaussian(R) 94 system (copyright 1995, Gaussian, Inc.),
 the Gaussian 92(TM) system (copyright 1992, Gaussian, Inc.),
 the Gaussian 90(TM) system (copyright 1990, Gaussian, Inc.),
 the Gaussian 88(TM) system (copyright 1988, Gaussian, Inc.),
 the Gaussian 86(TM) system (copyright 1986, Carnegie Mellon
 University), and the Gaussian 82(TM) system (copyright 1983,
 Carnegie Mellon University). Gaussian is a federally registered
 trademark of Gaussian, Inc.
  
 This software contains proprietary and confidential information,
 including trade secrets, belonging to Gaussian, Inc.
  
 This software is provided under written license and may be
 used, copied, transmitted, or stored only in accord with that
 written license.
  
 The following legend is applicable only to US Government
 contracts under FAR:
  
                    RESTRICTED RIGHTS LEGEND
  
 Use, reproduction and disclosure by the US Government is
 subject to restrictions as set forth in subparagraphs (a)
 and (c) of the Commercial Computer Software - Restricted
 Rights clause in FAR 52.227-19.
  
 Gaussian, Inc.
 340 Quinnipiac St., Bldg. 40, Wallingford CT 06492
  
  
 ---------------------------------------------------------------
 Warning -- This program may not be used in any manner that
 competes with the business of Gaussian, Inc. or will provide
 assistance to any competitor of Gaussian, Inc.  The licensee
 of this program is prohibited from giving any competitor of
 Gaussian, Inc. access to this program.  By using this program,
 the user acknowledges that Gaussian, Inc. is engaged in the
 business of creating and licensing software in the field of
 computational chemistry and represents and warrants to the
 licensee that it is not a competitor of Gaussian, Inc. and that
 it will not use this program in any manner prohibited above.
 ---------------------------------------------------------------
  

 Cite this work as:
 Gaussian 16, Revision A.03,
 M. J. Frisch, G. W. Trucks, H. B. Schlegel, G. E. Scuseria, 
 M. A. Robb, J. R. Cheeseman, G. Scalmani, V. Barone, 
 G. A. Petersson, H. Nakatsuji, X. Li, M. Caricato, A. V. Marenich, 
 J. Bloino, B. G. Janesko, R. Gomperts, B. Mennucci, H. P. Hratchian, 
 J. V. Ortiz, A. F. Izmaylov, J. L. Sonnenberg, D. Williams-Young, 
 F. Ding, F. Lipparini, F. Egidi, J. Goings, B. Peng, A. Petrone, 
 T. Henderson, D. Ranasinghe, V. G. Zakrzewski, J. Gao, N. Rega, 
 G. Zheng, W. Liang, M. Hada, M. Ehara, K. Toyota, R. Fukuda, 
 J. Hasegawa, M. Ishida, T. Nakajima, Y. Honda, O. Kitao, H. Nakai, 
 T. Vreven, K. Throssell, J. A. Montgomery, Jr., J. E. Peralta, 
 F. Ogliaro, M. J. Bearpark, J. J. Heyd, E. N. Brothers, K. N. Kudin, 
 V. N. Staroverov, T. A. Keith, R. Kobayashi, J. Normand, 
 K. Raghavachari, A. P. Rendell, J. C. Burant, S. S. Iyengar, 
 J. Tomasi, M. Cossi, J. M. Millam, M. Klene, C. Adamo, R. Cammi, 
 J. W. Ochterski, R. L. Martin, K. Morokuma, O. Farkas, 
 J. B. Foresman, and D. J. Fox, Gaussian, Inc., Wallingford CT, 2016.
 
 ******************************************
 Gaussian 16:  ES64L-G16RevA.03 25-Dec-2016
                24-Nov-2024 
 ******************************************
 %nproc=1
 Will use up to    1 processors via shared memory.
 ----------------------------------------------------------------------
 #p freq external='/mlatom/software/miniconda3/bin/python /mlatom/home/
 fatemealavi/mlatom_devBranch/mlatom/interfaces/gaussian_interface.py m
 odel_predict_kwargs'
 ----------------------------------------------------------------------
 1/10=4,18=10,30=1,38=1/1,3;
 2/12=2,17=6,18=5,40=1/2;
 3/11=9,25=1,30=1,41=9900000,43=2,71=2,140=1/1;
 4/20=17,22=2,24=3,113=1,114=1/2;
 6/7=2,8=2,9=2,10=2/1;
 7/8=1,25=1,44=-1/16;
 1/10=4,18=10,30=1/3;
 99//99;
 Leave Link    1 at Sun Nov 24 14:49:35 2024, MaxMem=           0 cpu:               0.0 elap:               0.0
 (Enter /mlatom/software/Gaussian/g16-avx2/l101.exe)
 ------------------------------------
 4cac9105-0f8a-4cc5-a3be-8603005d058c
 ------------------------------------
 Symbolic Z-matrix:
 Charge =  0 Multiplicity = 1
 C                    -1.31701  -0.04544   0. 
 H                    -1.65451   0.47951  -0.88783 
 H                    -1.65451   0.47951   0.88784 
 H                    -1.62381  -1.08361   0. 
 N                     0.16749   0.00105  0. 
 O                     0.77568  -1.06763   0. 
 O                     0.68212   1.11636   0. 
 
 ITRead=  0  0  0  0  0  0  0
 MicOpt= -1 -1 -1 -1 -1 -1 -1
 NAtoms=      7 NQM=        7 NQMF=       0 NMMI=      0 NMMIF=      0
                NMic=       0 NMicF=      0.
                    Isotopes and Nuclear Properties:
 (Nuclear quadrupole moments (NQMom) in fm**2, nuclear magnetic moments (NMagM)
  in nuclear magnetons)

  Atom         1           2           3           4           5           6           7
 IAtWgt=          12           1           1           1          14          16          16
 AtmWgt=  12.0000000   1.0078250   1.0078250   1.0078250  14.0030740  15.9949146  15.9949146
 NucSpn=           0           1           1           1           2           0           0
 AtZEff=  -0.0000000  -0.0000000  -0.0000000  -0.0000000  -0.0000000  -0.0000000  -0.0000000
 NQMom=    0.0000000   0.0000000   0.0000000   0.0000000   2.0440000   0.0000000   0.0000000
 NMagM=    0.0000000   2.7928460   2.7928460   2.7928460   0.4037610   0.0000000   0.0000000
 AtZNuc=   6.0000000   1.0000000   1.0000000   1.0000000   7.0000000   8.0000000   8.0000000
 Leave Link  101 at Sun Nov 24 14:49:36 2024, MaxMem=   104857600 cpu:               0.1 elap:               0.1
 (Enter /mlatom/software/Gaussian/g16-avx2/l103.exe)

 GradGradGradGradGradGradGradGradGradGradGradGradGradGradGradGradGradGrad
 Berny optimization.
 Initialization pass.
 Trust Radius=3.00D-01 FncErr=1.00D-07 GrdErr=1.00D-07 EigMax=2.50D+02 EigMin=1.00D-04
 Number of steps in this run=      2 maximum allowed number of steps=      2.
 GradGradGradGradGradGradGradGradGradGradGradGradGradGradGradGradGradGrad

 Leave Link  103 at Sun Nov 24 14:49:36 2024, MaxMem=   104857600 cpu:               0.0 elap:               0.0
 (Enter /mlatom/software/Gaussian/g16-avx2/l202.exe)
                          Input orientation:                          
 ---------------------------------------------------------------------
 Center     Atomic      Atomic             Coordinates (Angstroms)
 Number     Number       Type             X           Y           Z
 ---------------------------------------------------------------------
      1          6           0       -1.317013   -0.045440    0.000000
      2          1           0       -1.654509    0.479514   -0.887835
      3          1           0       -1.654507    0.479513    0.887836
      4          1           0       -1.623814   -1.083611    0.000000
      5          7           0        0.167494    0.001054   -0.000001
      6          8           0        0.775683   -1.067629    0.000000
      7          8           0        0.682124    1.116359    0.000000
 ---------------------------------------------------------------------
                    Distance matrix (angstroms):
                    1          2          3          4          5
     1  C    0.000000
     2  H    1.085233   0.000000
     3  H    1.085233   1.775671   0.000000
     4  H    1.082556   1.797930   1.797930   0.000000
     5  N    1.485235   2.082515   2.082514   2.094107   0.000000
     6  O    2.329001   3.014587   3.014585   2.399550   1.229624
     7  O    2.312212   2.579472   2.579471   3.187039   1.228312
                    6          7
     6  O    0.000000
     7  O    2.185991   0.000000
 Stoichiometry    CH3NO2
 Framework group  C1[X(CH3NO2)]
 Deg. of freedom    15
 Full point group                 C1      NOp   1
 Largest Abelian subgroup         C1      NOp   1
 Largest concise Abelian subgroup C1      NOp   1
                         Standard orientation:                         
 ---------------------------------------------------------------------
 Center     Atomic      Atomic             Coordinates (Angstroms)
 Number     Number       Type             X           Y           Z
 ---------------------------------------------------------------------
      1          6           0       -1.317013   -0.045440    0.000000
      2          1           0       -1.654509    0.479514   -0.887835
      3          1           0       -1.654507    0.479513    0.887836
      4          1           0       -1.623814   -1.083611    0.000000
      5          7           0        0.167494    0.001054   -0.000001
      6          8           0        0.775683   -1.067629    0.000000
      7          8           0        0.682124    1.116359    0.000000
 ---------------------------------------------------------------------
 Rotational constants (GHZ):          12.2012474          10.6058450           5.8837807
 Leave Link  202 at Sun Nov 24 14:49:36 2024, MaxMem=   104857600 cpu:               0.0 elap:               0.0
 (Enter /mlatom/software/Gaussian/g16-avx2/l301.exe)
 Standard basis: STO-3G (5D, 7F)
 Ernie: Thresh=  0.10000D-02 Tol=  0.10000D-05 Strict=F.
 There are    23 symmetry adapted cartesian basis functions of A   symmetry.
 There are    23 symmetry adapted basis functions of A   symmetry.
    23 basis functions,    69 primitive gaussians,    23 cartesian basis functions
    16 alpha electrons       16 beta electrons
       nuclear repulsion energy       124.7553795856 Hartrees.
 IExCor=    0 DFT=F Ex=HF Corr=None ExCW=0 ScaHFX=  1.000000
 ScaDFX=  1.000000  1.000000  1.000000  1.000000 ScalE2=  1.000000  1.000000
 IRadAn=      5 IRanWt=     -1 IRanGd=            0 ICorTp=0 IEmpDi=  4
 NAtoms=    7 NActive=    7 NUniq=    7 SFac= 1.00D+00 NAtFMM=   60 NAOKFM=F Big=F
 Integral buffers will be    131072 words long.
 Raffenetti 1 integral format.
 Two-electron integral symmetry is turned on.
 Leave Link  301 at Sun Nov 24 14:49:36 2024, MaxMem=   104857600 cpu:               0.0 elap:               0.1
 (Enter /mlatom/software/Gaussian/g16-avx2/l402.exe)
 External calculation of energy, first and second derivatives.
 Running external command "/mlatom/software/miniconda3/bin/python /mlatom/home/fatemealavi/mlatom_devBranch/mlatom/interfaces/gaussian_interface.py model_predict_kwargs R"
         input file       "/mlatom/home/fatemealavi/anharmonic/ANI_1ccx_CH3NO2_new_model/CH3NO2_ANI_1ccx_TLOnMP2_SP_energyShifter_FixL1and3/freq_CH3NO2_by_TL_ani_1ccx/Gau-194125.EIn"
         output file      "/mlatom/home/fatemealavi/anharmonic/ANI_1ccx_CH3NO2_new_model/CH3NO2_ANI_1ccx_TLOnMP2_SP_energyShifter_FixL1and3/freq_CH3NO2_by_TL_ani_1ccx/Gau-194125.EOu"
         message file     "/mlatom/home/fatemealavi/anharmonic/ANI_1ccx_CH3NO2_new_model/CH3NO2_ANI_1ccx_TLOnMP2_SP_energyShifter_FixL1and3/freq_CH3NO2_by_TL_ani_1ccx/Gau-194125.EMs"
         fchk file        "/mlatom/home/fatemealavi/anharmonic/ANI_1ccx_CH3NO2_new_model/CH3NO2_ANI_1ccx_TLOnMP2_SP_energyShifter_FixL1and3/freq_CH3NO2_by_TL_ani_1ccx/Gau-194125.EFC"
         mat. el file     "/mlatom/home/fatemealavi/anharmonic/ANI_1ccx_CH3NO2_new_model/CH3NO2_ANI_1ccx_TLOnMP2_SP_energyShifter_FixL1and3/freq_CH3NO2_by_TL_ani_1ccx/Gau-194125.EUF"
model loaded from /mlatom/home/fatemealavi/anharmonic/ANI_1ccx_CH3NO2_new_model/CH3NO2_ANI_1ccx_TLOnMP2_SP_energyShifter_FixL1and3/ani1ccx_gelu_TL_ani1x_gelu_byFateme/cv0.pt
model loaded from /mlatom/home/fatemealavi/anharmonic/ANI_1ccx_CH3NO2_new_model/CH3NO2_ANI_1ccx_TLOnMP2_SP_energyShifter_FixL1and3/ani1ccx_gelu_TL_ani1x_gelu_byFateme/cv1.pt
model loaded from /mlatom/home/fatemealavi/anharmonic/ANI_1ccx_CH3NO2_new_model/CH3NO2_ANI_1ccx_TLOnMP2_SP_energyShifter_FixL1and3/ani1ccx_gelu_TL_ani1x_gelu_byFateme/cv2.pt
model loaded from /mlatom/home/fatemealavi/anharmonic/ANI_1ccx_CH3NO2_new_model/CH3NO2_ANI_1ccx_TLOnMP2_SP_energyShifter_FixL1and3/ani1ccx_gelu_TL_ani1x_gelu_byFateme/cv3.pt
model loaded from /mlatom/home/fatemealavi/anharmonic/ANI_1ccx_CH3NO2_new_model/CH3NO2_ANI_1ccx_TLOnMP2_SP_energyShifter_FixL1and3/ani1ccx_gelu_TL_ani1x_gelu_byFateme/cv4.pt
model loaded from /mlatom/home/fatemealavi/anharmonic/ANI_1ccx_CH3NO2_new_model/CH3NO2_ANI_1ccx_TLOnMP2_SP_energyShifter_FixL1and3/ani1ccx_gelu_TL_ani1x_gelu_byFateme/cv5.pt
model loaded from /mlatom/home/fatemealavi/anharmonic/ANI_1ccx_CH3NO2_new_model/CH3NO2_ANI_1ccx_TLOnMP2_SP_energyShifter_FixL1and3/ani1ccx_gelu_TL_ani1x_gelu_byFateme/cv6.pt
model loaded from /mlatom/home/fatemealavi/anharmonic/ANI_1ccx_CH3NO2_new_model/CH3NO2_ANI_1ccx_TLOnMP2_SP_energyShifter_FixL1and3/ani1ccx_gelu_TL_ani1x_gelu_byFateme/cv7.pt
 Recovered energy= -1.08700325835     dipole=      0.000000000000      0.000000000000      0.000000000000
 Energy=    -1.08700326     NIter=   0.
 Dipole moment=       0.000000       0.000000       0.000000
 Leave Link  402 at Sun Nov 24 14:49:41 2024, MaxMem=   104857600 cpu:               0.0 elap:               5.3
 (Enter /mlatom/software/Gaussian/g16-avx2/l601.exe)
 Leave Link  601 at Sun Nov 24 14:49:41 2024, MaxMem=   104857600 cpu:               0.0 elap:               0.0
 (Enter /mlatom/software/Gaussian/g16-avx2/l716.exe)
 Dipole        = 0.00000000D+00 0.00000000D+00 0.00000000D+00
 Full mass-weighted force constant matrix:
 Low frequencies ---   -0.1144    0.1099    0.1441    5.1330    5.1424    8.4966
 Low frequencies ---   47.9976  478.2475  611.1344
 Diagonal vibrational polarizability:
        0.0000000       0.0000000       0.0000000
 Harmonic frequencies (cm**-1), IR intensities (KM/Mole), Raman scattering
 activities (A**4/AMU), depolarization ratios for plane and unpolarized
 incident light, reduced masses (AMU), force constants (mDyne/A),
 and normal coordinates:
                      1                      2                      3
                      A                      A                      A
 Frequencies --     47.2775               478.2475               611.1344
 Red. masses --      1.0919                 3.4022                 3.6192
 Frc consts  --      0.0014                 0.4585                 0.7964
 IR Inten    --      0.0000                 0.0000                 0.0000
  Atom  AN      X      Y      Z        X      Y      Z        X      Y      Z
     1   6    -0.00   0.00   0.00    -0.00  -0.22  -0.00    -0.00   0.00  -0.01
     2   1     0.04  -0.50  -0.31    -0.26  -0.40  -0.01     0.55   0.07  -0.18
     3   1    -0.04   0.50  -0.31    -0.26  -0.40   0.01    -0.55  -0.07  -0.18
     4   1     0.00   0.00   0.54     0.49  -0.36   0.00    -0.00   0.00  -0.35
     5   7    -0.00  -0.00   0.02    -0.01   0.16   0.00    -0.00  -0.00   0.39
     6   8     0.00  -0.00  -0.06    -0.21   0.04  -0.00     0.00  -0.00  -0.14
     7   8    -0.00  -0.00   0.05     0.23   0.05  -0.00     0.00  -0.00  -0.15
                      4                      5                      6
                      A                      A                      A
 Frequencies --    669.8993               939.6108              1128.3233
 Red. masses --      6.6999                 8.5808                 1.3805
 Frc consts  --      1.7715                 4.4635                 1.0355
 IR Inten    --      0.0000                 0.0000                 0.0000
  Atom  AN      X      Y      Z        X      Y      Z        X      Y      Z
     1   6     0.46  -0.00  -0.00     0.39  -0.00  -0.00     0.01   0.16   0.00
     2   1     0.43   0.01   0.02     0.40   0.04   0.03    -0.36  -0.25  -0.10
     3   1     0.43   0.01  -0.02     0.40   0.04  -0.03    -0.36  -0.25   0.10
     4   1     0.44   0.01   0.00     0.34   0.02   0.00     0.75  -0.06  -0.00
     5   7     0.10   0.02   0.00    -0.32  -0.01   0.00    -0.01  -0.02  -0.00
     6   8    -0.26  -0.21  -0.00    -0.06   0.39  -0.00     0.04  -0.04   0.00
     7   8    -0.25   0.20  -0.00    -0.02  -0.39   0.00    -0.04  -0.04   0.00
                      7                      8                      9
                      A                      A                      A
 Frequencies --   1149.5031              1411.3292              1430.2745
 Red. masses --      1.5038                 7.9715                 1.2555
 Frc consts  --      1.1708                 9.3551                 1.5132
 IR Inten    --      0.0000                 0.0000                 0.0000
  Atom  AN      X      Y      Z        X      Y      Z        X      Y      Z
     1   6     0.00  -0.00   0.15    -0.22   0.02   0.00    -0.11  -0.00   0.00
     2   1     0.62  -0.09  -0.15     0.33  -0.08  -0.26     0.54   0.11  -0.17
     3   1    -0.62   0.09  -0.15     0.33  -0.08   0.26     0.54   0.11   0.17
     4   1    -0.00   0.00  -0.36     0.31  -0.14  -0.00     0.53  -0.19  -0.00
     5   7     0.00   0.00  -0.13     0.54   0.01   0.00    -0.07  -0.00  -0.00
     6   8    -0.00   0.00   0.02    -0.20   0.23  -0.00     0.02  -0.03   0.00
     7   8     0.00   0.00   0.02    -0.17  -0.23  -0.00     0.02   0.03   0.00
                     10                     11                     12
                      A                      A                      A
 Frequencies --   1491.1301              1501.6139              1745.4441
 Red. masses --      1.0612                 1.0439                11.5254
 Frc consts  --      1.3902                 1.3868                20.6880
 IR Inten    --      0.0000                 0.0000                 0.0000
  Atom  AN      X      Y      Z        X      Y      Z        X      Y      Z
     1   6    -0.01  -0.05  -0.00     0.00   0.00  -0.05     0.00  -0.03  -0.00
     2   1    -0.17   0.50   0.37     0.32   0.37   0.06     0.16  -0.10  -0.12
     3   1    -0.17   0.50  -0.37    -0.32  -0.37   0.06     0.16  -0.10   0.12
     4   1     0.36  -0.15   0.00    -0.00   0.00   0.72    -0.35   0.09   0.00
     5   7     0.02   0.02  -0.00    -0.00  -0.00  -0.02    -0.02   0.73  -0.00
     6   8     0.00  -0.01   0.00    -0.00   0.00   0.00     0.16  -0.29   0.00
     7   8    -0.01  -0.02   0.00     0.00   0.00   0.00    -0.14  -0.32  -0.00
                     13                     14                     15
                      A                      A                      A
 Frequencies --   3115.5141              3219.6870              3245.8999
 Red. masses --      1.0296                 1.1055                 1.1093
 Frc consts  --      5.8881                 6.7522                 6.8858
 IR Inten    --      0.0000                 0.0000                 0.0000
  Atom  AN      X      Y      Z        X      Y      Z        X      Y      Z
     1   6    -0.04   0.01  -0.00     0.00   0.00  -0.09    -0.00  -0.10  -0.00
     2   1     0.18  -0.29   0.50     0.22  -0.35   0.57    -0.11   0.16  -0.30
     3   1     0.18  -0.29  -0.50    -0.22   0.35   0.57    -0.11   0.16   0.30
     4   1     0.14   0.50  -0.00    -0.00  -0.00  -0.02     0.24   0.82  -0.00
     5   7     0.00   0.00  -0.00    -0.00   0.00  -0.00     0.00  -0.00  -0.00
     6   8     0.00  -0.00  -0.00     0.00  -0.00  -0.00    -0.00   0.00  -0.00
     7   8     0.00  -0.00   0.00    -0.00  -0.00   0.00     0.00   0.00   0.00

 -------------------
 - Thermochemistry -
 -------------------
 Temperature   298.150 Kelvin.  Pressure   1.00000 Atm.
 Atom     1 has atomic number  6 and mass  12.00000
 Atom     2 has atomic number  1 and mass   1.00783
 Atom     3 has atomic number  1 and mass   1.00783
 Atom     4 has atomic number  1 and mass   1.00783
 Atom     5 has atomic number  7 and mass  14.00307
 Atom     6 has atomic number  8 and mass  15.99491
 Atom     7 has atomic number  8 and mass  15.99491
 Molecular mass:    61.01638 amu.
 Principal axes and moments of inertia in atomic units:
                           1         2         3
     Eigenvalues --   147.91448 170.16477 306.73155
           X            0.99958   0.02907   0.00000
           Y           -0.02907   0.99958   0.00000
           Z           -0.00000  -0.00000   1.00000
 This molecule is an asymmetric top.
 Rotational symmetry number  1.
 Rotational temperatures (Kelvin)      0.58557     0.50900     0.28238
 Rotational constants (GHZ):          12.20125    10.60584     5.88378
 Zero-point vibrational energy     132695.1 (Joules/Mol)
                                   31.71489 (Kcal/Mol)
 Warning -- explicit consideration of   3 degrees of freedom as
           vibrations may cause significant error
 Vibrational temperatures:     68.02   688.09   879.29   963.84  1351.89
          (Kelvin)           1623.41  1653.88  2030.59  2057.85  2145.40
                             2160.49  2511.30  4482.53  4632.41  4670.13
 
 Zero-point correction=                           0.050541 (Hartree/Particle)
 Thermal correction to Energy=                    0.054849
 Thermal correction to Enthalpy=                  0.055793
 Thermal correction to Gibbs Free Energy=         0.023241
 Sum of electronic and zero-point Energies=             -1.036462
 Sum of electronic and thermal Energies=                -1.032155
 Sum of electronic and thermal Enthalpies=              -1.031210
 Sum of electronic and thermal Free Energies=           -1.063762
 
                     E (Thermal)             CV                S
                      KCal/Mol        Cal/Mol-Kelvin    Cal/Mol-Kelvin
 Total                   34.418             12.460             68.510
 Electronic               0.000              0.000              0.000
 Translational            0.889              2.981             38.245
 Rotational               0.889              2.981             23.561
 Vibrational             32.641              6.498              6.704
 Vibration     1          0.595              1.979              4.928
 Vibration     2          0.835              1.298              0.715
 Vibration     3          0.970              1.008              0.431
                       Q            Log10(Q)             Ln(Q)
 Total Bot       0.204060D-10        -10.690241        -24.615190
 Total V=0       0.360526D+13         12.556936         28.913414
 Vib (Bot)       0.346314D-22        -22.460530        -51.717281
 Vib (Bot)    1  0.437366D+01          0.640845          1.475600
 Vib (Bot)    2  0.350232D+00         -0.455644         -1.049160
 Vib (Bot)    3  0.241530D+00         -0.617030         -1.420763
 Vib (V=0)       0.611854D+01          0.786648          1.811323
 Vib (V=0)    1  0.490215D+01          0.690386          1.589674
 Vib (V=0)    2  0.111046D+01          0.045503          0.104775
 Vib (V=0)    3  0.105528D+01          0.023368          0.053807
 Electronic      0.100000D+01          0.000000          0.000000
 Translational   0.187337D+08          7.272624         16.745835
 Rotational      0.314532D+05          4.497665         10.356256
 ***** Axes restored to original set *****
 -------------------------------------------------------------------
 Center     Atomic                   Forces (Hartrees/Bohr)
 Number     Number              X              Y              Z
 -------------------------------------------------------------------
      1        6           0.000007805   -0.000038513   -0.000000198
      2        1           0.000003413   -0.000040894    0.000103021
      3        1           0.000003366   -0.000040800   -0.000102885
      4        1           0.000033663    0.000102491   -0.000000028
      5        7          -0.000094017    0.000031321    0.000000332
      6        8           0.000002133   -0.000028515   -0.000000115
      7        8           0.000043636    0.000014909   -0.000000128
 -------------------------------------------------------------------
 Cartesian Forces:  Max     0.000103021 RMS     0.000049041
 Z-matrix is all fixed cartesians, so copy forces.
 Force constants in Cartesian coordinates: 
                1             2             3             4             5 
      1  0.436490D+00
      2  0.434969D-02  0.662304D+00
      3  0.000000D+00  0.000000D+00  0.595388D+00
      4 -0.717916D-01  0.356025D-01 -0.670537D-01  0.837660D-01
      5  0.410425D-01 -0.116462D+00  0.117084D+00 -0.451444D-01  0.119264D+00
      6 -0.742867D-01  0.115241D+00 -0.243029D+00  0.773091D-01 -0.124637D+00
      7 -0.717912D-01  0.356023D-01  0.670536D-01  0.442199D-02 -0.628609D-02
      8  0.410423D-01 -0.116462D+00 -0.117084D+00 -0.628607D-02  0.840926D-02
      9  0.742866D-01 -0.115241D+00 -0.243030D+00  0.887346D-02 -0.143709D-01
     10 -0.701033D-01 -0.652899D-01  0.000000D+00  0.418745D-02  0.106138D-01
     11 -0.816902D-01 -0.322431D+00  0.000000D+00 -0.375172D-02 -0.960465D-02
     12  0.000000D+00  0.000000D+00 -0.521199D-01  0.932263D-02  0.248908D-01
     13 -0.172947D+00 -0.405851D-02  0.000000D+00 -0.169614D-01 -0.760239D-03
     14 -0.514916D-02 -0.692938D-01  0.000000D+00  0.166795D-01 -0.362557D-02
     15  0.000000D+00  0.000000D+00 -0.994823D-01 -0.352157D-01 -0.234628D-02
     16 -0.277692D-01  0.456321D-01  0.000000D+00 -0.559388D-02  0.181995D-02
     17  0.164827D-01 -0.137979D-01  0.000000D+00  0.834549D-03  0.839128D-03
     18  0.000000D+00  0.000000D+00  0.234989D-01  0.333558D-02 -0.584978D-03
     19 -0.220882D-01 -0.518383D-01  0.000000D+00  0.197138D-02 -0.128552D-02
     20 -0.160779D-01 -0.238569D-01  0.000000D+00  0.206570D-02  0.118047D-02
     21  0.000000D+00  0.000000D+00  0.187751D-01  0.342857D-02 -0.354960D-04
                6             7             8             9            10 
      6  0.256438D+00
      7 -0.887353D-02  0.837657D-01
      8  0.143710D-01 -0.451442D-01  0.119264D+00
      9 -0.190020D-01 -0.773090D-01  0.124637D+00  0.256439D+00
     10  0.161992D-02  0.418744D-02  0.106138D-01 -0.161991D-02  0.795671D-01
     11 -0.268796D-02 -0.375172D-02 -0.960467D-02  0.268795D-02  0.833630D-01
     12  0.256360D-02 -0.932266D-02 -0.248909D-01  0.256362D-02  0.000000D+00
     13  0.256648D-02 -0.169614D-01 -0.760218D-03 -0.256643D-02 -0.936891D-02
     14  0.644249D-03  0.166794D-01 -0.362560D-02 -0.644314D-03 -0.342128D-01
     15  0.309722D-02  0.352157D-01  0.234628D-02  0.309715D-02  0.000000D+00
     16  0.152193D-02 -0.559384D-02  0.181993D-02 -0.152192D-02  0.244264D-02
     17 -0.171968D-02  0.834521D-03  0.839133D-03  0.171967D-02 -0.678230D-03
     18 -0.636801D-03 -0.333559D-02  0.584981D-03 -0.636796D-03  0.000000D+00
     19  0.142805D-03  0.197138D-02 -0.128554D-02 -0.142818D-03 -0.109124D-01
     20 -0.121216D-02  0.206571D-02  0.118047D-02  0.121217D-02 -0.440971D-02
     21  0.568941D-03 -0.342856D-02  0.355002D-04  0.568956D-03  0.000000D+00
               11            12            13            14            15 
     11  0.340620D+00
     12  0.000000D+00  0.480110D-01
     13  0.378808D-02  0.000000D+00  0.698867D+00
     14 -0.394364D-02  0.000000D+00 -0.110678D-01  0.107955D+01
     15  0.000000D+00 -0.373231D-02  0.000000D+00  0.000000D+00  0.240726D+00
     16  0.264428D-02  0.000000D+00 -0.257363D+00  0.232701D+00  0.000000D+00
     17  0.237191D-02  0.000000D+00  0.183429D+00 -0.478986D+00  0.000000D+00
     18  0.000000D+00  0.364982D-04  0.000000D+00  0.000000D+00 -0.699584D-01
     19 -0.601734D-03  0.000000D+00 -0.225266D+00 -0.215630D+00  0.000000D+00
     20  0.259235D-02  0.000000D+00 -0.170570D+00 -0.520075D+00  0.000000D+00
     21  0.000000D+00  0.267753D-02  0.000000D+00  0.000000D+00 -0.737476D-01
               16            17            18            19            20 
     16  0.260873D+00
     17 -0.247161D+00  0.553691D+00
     18  0.000000D+00  0.000000D+00  0.230775D-01
     19  0.330046D-01  0.462587D-01  0.000000D+00  0.221319D+00
     20 -0.374558D-01 -0.649572D-01  0.000000D+00  0.224382D+00  0.603936D+00
     21  0.000000D+00  0.000000D+00  0.246191D-01  0.000000D+00  0.000000D+00
               21 
     21  0.265379D-01
 Leave Link  716 at Sun Nov 24 14:49:41 2024, MaxMem=   104857600 cpu:               0.0 elap:               0.1
 (Enter /mlatom/software/Gaussian/g16-avx2/l103.exe)

 GradGradGradGradGradGradGradGradGradGradGradGradGradGradGradGradGradGrad
 Berny optimization.
 Search for a local minimum.
 Step number   1 out of a maximum of    2
 All quantities printed in internal units (Hartrees-Bohrs-Radians)
 Second derivative matrix not updated -- analytic derivatives used.
 ITU=  0
     Eigenvalues ---    0.00011   0.03601   0.04645   0.07626   0.09548
     Eigenvalues ---    0.10573   0.17264   0.23543   0.30217   0.41409
     Eigenvalues ---    0.61941   0.79729   0.87715   1.11810   1.67822
 Angle between quadratic step and forces=  50.31 degrees.
 Linear search not attempted -- first point.
 B after Tr=     0.000016   -0.000018   -0.000000
         Rot=    1.000000    0.000001    0.000000    0.000021 Ang=   0.00 deg.
 Variable       Old X    -DE/DX   Delta X   Delta X   Delta X     New X
                                 (Linear)    (Quad)   (Total)
    X1       -2.48879   0.00001   0.00000   0.00017   0.00018  -2.48862
    Y1       -0.08587  -0.00004   0.00000  -0.00008   0.00001  -0.08586
    Z1        0.00000  -0.00000   0.00000  -0.00000  -0.00000   0.00000
    X2       -3.12657   0.00000   0.00000  -0.00040  -0.00034  -3.12691
    Y2        0.90615  -0.00004   0.00000  -0.00023  -0.00012   0.90603
    Z2       -1.67776   0.00010   0.00000   0.00046   0.00046  -1.67731
    X3       -3.12657   0.00000   0.00000  -0.00040  -0.00034  -3.12691
    Y3        0.90615  -0.00004   0.00000  -0.00025  -0.00014   0.90601
    Z3        1.67777  -0.00010   0.00000  -0.00044  -0.00045   1.67732
    X4       -3.06856   0.00003   0.00000   0.00061   0.00054  -3.06803
    Y4       -2.04773   0.00010   0.00000   0.00011   0.00022  -2.04751
    Z4        0.00000  -0.00000   0.00000  -0.00001  -0.00001  -0.00001
    X5        0.31652  -0.00009   0.00000  -0.00010  -0.00009   0.31643
    Y5        0.00199   0.00003   0.00000   0.00020   0.00017   0.00216
    Z5       -0.00000   0.00000   0.00000   0.00000   0.00000  -0.00000
    X6        1.46583   0.00000   0.00000  -0.00032  -0.00038   1.46544
    Y6       -2.01753  -0.00003   0.00000  -0.00002  -0.00009  -2.01762
    Z6        0.00000  -0.00000   0.00000   0.00001   0.00001   0.00001
    X7        1.28903   0.00004   0.00000   0.00034   0.00044   1.28947
    Y7        2.10961   0.00001   0.00000   0.00003  -0.00004   2.10957
    Z7        0.00000  -0.00000   0.00000  -0.00001  -0.00001  -0.00001
         Item               Value     Threshold  Converged?
 Maximum Force            0.000103     0.000450     YES
 RMS     Force            0.000049     0.000300     YES
 Maximum Displacement     0.000539     0.001800     YES
 RMS     Displacement     0.000262     0.001200     YES
 Predicted change in Energy=-8.845302D-08
 Optimization completed.
    -- Stationary point found.
 GradGradGradGradGradGradGradGradGradGradGradGradGradGradGradGradGradGrad

 Leave Link  103 at Sun Nov 24 14:49:41 2024, MaxMem=   104857600 cpu:               0.0 elap:               0.1
 (Enter /mlatom/software/Gaussian/g16-avx2/l9999.exe)
 1\1\GINC-B003\Freq\RExternal='/mlatom/software/miniconda3/bin/python /
 mlatom/home/fatemealavi/mlatom\ZDO\C1H3N1O2\UNKNOWN\24-Nov-2024\0\\#p 
 freq external='/mlatom/software/miniconda3/bin/python /mlatom/home/fat
 emealavi/mlatom_devBranch/mlatom/interfaces/gaussian_interface.py mode
 l_predict_kwargs'\\4cac9105-0f8a-4cc5-a3be-8603005d058c\\0,1\C,-1.3170
 12883,-0.0454397687,0.0000001875\H,-1.654509152,0.4795140583,-0.887834
 8125\H,-1.654507152,0.4795130583,0.8878361875\H,-1.6238143509,-1.08361
 0926,0.0000001875\N,0.1674940932,0.0010539921,-0.0000008125\O,0.775682
 6409,-1.0676286962,0.0000001875\O,0.6821235216,1.1163592558,0.00000018
 75\\Version=ES64L-G16RevA.03\HF=-1.0870033\RMSD=0.000e+00\RMSF=4.904e-
 05\ZeroPoint=0.0505409\Thermal=0.0548487\Dipole=0.,0.,0.\PG=C01 [X(C1H
 3N1O2)]\NImag=0\\0.43649033,0.00434969,0.66230386,0.00000009,0.0000002
 4,0.59538764,-0.07179159,0.03560252,-0.06705369,0.08376604,0.04104251,
 -0.11646223,0.11708360,-0.04514444,0.11926363,-0.07428674,0.11524125,-
 0.24302921,0.07730913,-0.12463671,0.25643823,-0.07179122,0.03560234,0.
 06705359,0.00442199,-0.00628609,-0.00887353,0.08376570,0.04104229,-0.1
 1646213,-0.11708386,-0.00628607,0.00840926,0.01437100,-0.04514418,0.11
 926351,0.07428659,-0.11524147,-0.24303012,0.00887346,-0.01437094,-0.01
 900198,-0.07730897,0.12463693,0.25643915,-0.07010329,-0.06528991,0.,0.
 00418745,0.01061383,0.00161992,0.00418744,0.01061379,-0.00161991,0.079
 56712,-0.08169016,-0.32243094,-0.00000002,-0.00375172,-0.00960465,-0.0
 0268796,-0.00375172,-0.00960467,0.00268795,0.08336299,0.34061965,0.000
 00002,0.,-0.05211991,0.00932263,0.02489079,0.00256360,-0.00932266,-0.0
 2489085,0.00256362,0.,0.00000003,0.04801097,-0.17294684,-0.00405851,0.
 00000015,-0.01696137,-0.00076024,0.00256648,-0.01696143,-0.00076022,-0
 .00256643,-0.00936891,0.00378808,0.,0.69886714,-0.00514916,-0.06929375
 ,0.00000005,0.01667945,-0.00362557,0.00064425,0.01667942,-0.00362560,-
 0.00064431,-0.03421276,-0.00394364,0.00000004,-0.01106777,1.07954979,-
 0.00000004,0.00000002,-0.09948234,-0.03521568,-0.00234628,0.00309722,0
 .03521572,0.00234628,0.00309715,0.,0.,-0.00373231,0.00000025,0.,0.2407
 2619,-0.02776917,0.04563214,-0.00000008,-0.00559388,0.00181995,0.00152
 193,-0.00559384,0.00181993,-0.00152192,0.00244264,0.00264428,0.,-0.257
 36299,0.23270068,-0.00000013,0.26087266,0.01648274,-0.01379789,0.00000
 006,0.00083455,0.00083913,-0.00171968,0.00083452,0.00083913,0.00171967
 ,-0.00067823,0.00237191,0.,0.18342896,-0.47898638,0.00000016,-0.247161
 22,0.55369133,0.00000003,0.00000002,0.02349891,0.00333558,-0.00058498,
 -0.00063680,-0.00333559,0.00058498,-0.00063680,0.,0.,0.00003650,-0.000
 00024,0.00000038,-0.06995837,0.00000022,-0.00000030,0.02307745,-0.0220
 8818,-0.05183826,-0.00000005,0.00197138,-0.00128552,0.00014281,0.00197
 138,-0.00128554,-0.00014282,-0.01091244,-0.00060173,0.00000001,-0.2252
 6565,-0.21562985,-0.00000013,0.03300459,0.04625867,-0.00000001,0.22131
 890,-0.01607790,-0.02385687,-0.00000007,0.00206570,0.00118047,-0.00121
 216,0.00206571,0.00118047,0.00121217,-0.00440971,0.00259235,0.,-0.1705
 7030,-0.52007490,-0.00000017,-0.03745575,-0.06495719,-0.00000010,0.224
 38225,0.60393560,0.00000005,-0.00000002,0.01877512,0.00342857,-0.00003
 550,0.00056894,-0.00342856,0.00003550,0.00056896,0.,0.,0.00267753,-0.0
 0000022,-0.00000040,-0.07374755,-0.00000002,0.00000009,0.02461910,0.00
 000018,0.00000032,0.02653790\\-0.00000781,0.00003851,0.00000020,-0.000
 00341,0.00004089,-0.00010302,-0.00000337,0.00004080,0.00010288,-0.0000
 3366,-0.00010249,0.00000003,0.00009402,-0.00003132,-0.00000033,-0.0000
 0213,0.00002851,0.00000012,-0.00004364,-0.00001491,0.00000013\\\@


 LORD, MAN... WERE YE BUT WHYLES WHERE I AM, 
 THE GENTILES YE WAD NE'ER ENVY 'EM.        
 IT'S TRUE, THEY NEEDNA STARVE OR SWEAT,     
 THRO' WINTER'S CAULD OR SIMMER'S HEAT...  
 THEY'VE NAE SAIR WARK TO CRAZE THEIR BANES, 
 AND FILL AULD AGE WITH GRIPS AN' GRANES...  
                                             
 BUT HUMAN BODIES ARE SIC FOOLS              
 FOR A' THEIR COLLEGES AND SCHOOLS,           
 THAT WHEN NAE REAL ILLS PERPLEX THEM,       
 THEY MAK ENOW THEMSELVES TO VEX THEM,       
 AN' AYE THE LESS THEY HAE TO STURT THEM,    
 IN LIKE PROPORTION LESS WILL HURT THEM....  
                                             
                (ROBERT BURNS 'THE TWA DOGS')
 Job cpu time:       0 days  0 hours  0 minutes  0.4 seconds.
 Elapsed time:       0 days  0 hours  0 minutes  6.0 seconds.
 File lengths (MBytes):  RWF=     22 Int=      0 D2E=      0 Chk=      2 Scr=      2
 Normal termination of Gaussian 16 at Sun Nov 24 14:49:42 2024.
