 Entering Gaussian System, Link 0=/mlatom/software/Gaussian/g16-avx2/g16
 Input=gaussian.com
 Output=gaussian.log
 Initial command:
 /mlatom/software/Gaussian/g16-avx2/l1.exe "/mlatom/home/fatemealavi/anharmonic/ANI_1ccx_H2CO_new_model/H2CO_ANI_1ccx_TLOnCCSDT_SP_energyShifter_FixL1and7/freq_H2CO_by_TL_ani_1ccx/Gau-199060.inp" -scrdir="/mlatom/home/fatemealavi/anharmonic/ANI_1ccx_H2CO_new_model/H2CO_ANI_1ccx_TLOnCCSDT_SP_energyShifter_FixL1and7/freq_H2CO_by_TL_ani_1ccx/"
 Entering Link 1 = /mlatom/software/Gaussian/g16-avx2/l1.exe PID=    199061.
  
 Copyright (c) 1988,1990,1992,1993,1995,1998,2003,2009,2016,
            Gaussian, Inc.  All Rights Reserved.
  
 This is part of the Gaussian(R) 16 program.  It is based on
 the Gaussian(R) 09 system (copyright 2009, Gaussian, Inc.),
 the Gaussian(R) 03 system (copyright 2003, Gaussian, Inc.),
 the Gaussian(R) 98 system (copyright 1998, Gaussian, Inc.),
 the Gaussian(R) 94 system (copyright 1995, Gaussian, Inc.),
 the Gaussian 92(TM) system (copyright 1992, Gaussian, Inc.),
 the Gaussian 90(TM) system (copyright 1990, Gaussian, Inc.),
 the Gaussian 88(TM) system (copyright 1988, Gaussian, Inc.),
 the Gaussian 86(TM) system (copyright 1986, Carnegie Mellon
 University), and the Gaussian 82(TM) system (copyright 1983,
 Carnegie Mellon University). Gaussian is a federally registered
 trademark of Gaussian, Inc.
  
 This software contains proprietary and confidential information,
 including trade secrets, belonging to Gaussian, Inc.
  
 This software is provided under written license and may be
 used, copied, transmitted, or stored only in accord with that
 written license.
  
 The following legend is applicable only to US Government
 contracts under FAR:
  
                    RESTRICTED RIGHTS LEGEND
  
 Use, reproduction and disclosure by the US Government is
 subject to restrictions as set forth in subparagraphs (a)
 and (c) of the Commercial Computer Software - Restricted
 Rights clause in FAR 52.227-19.
  
 Gaussian, Inc.
 340 Quinnipiac St., Bldg. 40, Wallingford CT 06492
  
  
 ---------------------------------------------------------------
 Warning -- This program may not be used in any manner that
 competes with the business of Gaussian, Inc. or will provide
 assistance to any competitor of Gaussian, Inc.  The licensee
 of this program is prohibited from giving any competitor of
 Gaussian, Inc. access to this program.  By using this program,
 the user acknowledges that Gaussian, Inc. is engaged in the
 business of creating and licensing software in the field of
 computational chemistry and represents and warrants to the
 licensee that it is not a competitor of Gaussian, Inc. and that
 it will not use this program in any manner prohibited above.
 ---------------------------------------------------------------
  

 Cite this work as:
 Gaussian 16, Revision A.03,
 M. J. Frisch, G. W. Trucks, H. B. Schlegel, G. E. Scuseria, 
 M. A. Robb, J. R. Cheeseman, G. Scalmani, V. Barone, 
 G. A. Petersson, H. Nakatsuji, X. Li, M. Caricato, A. V. Marenich, 
 J. Bloino, B. G. Janesko, R. Gomperts, B. Mennucci, H. P. Hratchian, 
 J. V. Ortiz, A. F. Izmaylov, J. L. Sonnenberg, D. Williams-Young, 
 F. Ding, F. Lipparini, F. Egidi, J. Goings, B. Peng, A. Petrone, 
 T. Henderson, D. Ranasinghe, V. G. Zakrzewski, J. Gao, N. Rega, 
 G. Zheng, W. Liang, M. Hada, M. Ehara, K. Toyota, R. Fukuda, 
 J. Hasegawa, M. Ishida, T. Nakajima, Y. Honda, O. Kitao, H. Nakai, 
 T. Vreven, K. Throssell, J. A. Montgomery, Jr., J. E. Peralta, 
 F. Ogliaro, M. J. Bearpark, J. J. Heyd, E. N. Brothers, K. N. Kudin, 
 V. N. Staroverov, T. A. Keith, R. Kobayashi, J. Normand, 
 K. Raghavachari, A. P. Rendell, J. C. Burant, S. S. Iyengar, 
 J. Tomasi, M. Cossi, J. M. Millam, M. Klene, C. Adamo, R. Cammi, 
 J. W. Ochterski, R. L. Martin, K. Morokuma, O. Farkas, 
 J. B. Foresman, and D. J. Fox, Gaussian, Inc., Wallingford CT, 2016.
 
 ******************************************
 Gaussian 16:  ES64L-G16RevA.03 25-Dec-2016
                25-Nov-2024 
 ******************************************
 %nproc=1
 Will use up to    1 processors via shared memory.
 ----------------------------------------------------------------------
 #p freq external='/mlatom/software/miniconda3/bin/python /mlatom/home/
 fatemealavi/mlatom_devBranch/mlatom/interfaces/gaussian_interface.py m
 odel_predict_kwargs'
 ----------------------------------------------------------------------
 1/10=4,18=10,30=1,38=1/1,3;
 2/12=2,17=6,18=5,40=1/2;
 3/11=9,25=1,30=1,41=9900000,43=2,71=2,140=1/1;
 4/20=17,22=2,24=3,113=1,114=1/2;
 6/7=2,8=2,9=2,10=2/1;
 7/8=1,25=1,44=-1/16;
 1/10=4,18=10,30=1/3;
 99//99;
 Leave Link    1 at Mon Nov 25 12:17:09 2024, MaxMem=           0 cpu:               0.0 elap:               0.0
 (Enter /mlatom/software/Gaussian/g16-avx2/l101.exe)
 ------------------------------------
 7e571614-236f-4b7e-aa6b-09bb26c16908
 ------------------------------------
 Symbolic Z-matrix:
 Charge =  0 Multiplicity = 1
 C                    -0.53309  0.         0. 
 O                     0.67822   0.       0. 
 H                    -1.11363   0.93808  -0.00001 
 H                    -1.11363  -0.93808   0.00003 
 
 ITRead=  0  0  0  0
 MicOpt= -1 -1 -1 -1
 NAtoms=      4 NQM=        4 NQMF=       0 NMMI=      0 NMMIF=      0
                NMic=       0 NMicF=      0.
                    Isotopes and Nuclear Properties:
 (Nuclear quadrupole moments (NQMom) in fm**2, nuclear magnetic moments (NMagM)
  in nuclear magnetons)

  Atom         1           2           3           4
 IAtWgt=          12          16           1           1
 AtmWgt=  12.0000000  15.9949146   1.0078250   1.0078250
 NucSpn=           0           0           1           1
 AtZEff=  -0.0000000  -0.0000000  -0.0000000  -0.0000000
 NQMom=    0.0000000   0.0000000   0.0000000   0.0000000
 NMagM=    0.0000000   0.0000000   2.7928460   2.7928460
 AtZNuc=   6.0000000   8.0000000   1.0000000   1.0000000
 Leave Link  101 at Mon Nov 25 12:17:10 2024, MaxMem=   104857600 cpu:               0.1 elap:               0.1
 (Enter /mlatom/software/Gaussian/g16-avx2/l103.exe)

 GradGradGradGradGradGradGradGradGradGradGradGradGradGradGradGradGradGrad
 Berny optimization.
 Initialization pass.
 Trust Radius=3.00D-01 FncErr=1.00D-07 GrdErr=1.00D-07 EigMax=2.50D+02 EigMin=1.00D-04
 Number of steps in this run=      2 maximum allowed number of steps=      2.
 GradGradGradGradGradGradGradGradGradGradGradGradGradGradGradGradGradGrad

 Leave Link  103 at Mon Nov 25 12:17:10 2024, MaxMem=   104857600 cpu:               0.0 elap:               0.0
 (Enter /mlatom/software/Gaussian/g16-avx2/l202.exe)
                          Input orientation:                          
 ---------------------------------------------------------------------
 Center     Atomic      Atomic             Coordinates (Angstroms)
 Number     Number       Type             X           Y           Z
 ---------------------------------------------------------------------
      1          6           0       -0.533088   -0.000000    0.000002
      2          8           0        0.678224    0.000001   -0.000005
      3          1           0       -1.113633    0.938081   -0.000007
      4          1           0       -1.113625   -0.938085    0.000032
 ---------------------------------------------------------------------
                    Distance matrix (angstroms):
                    1          2          3          4
     1  C    0.000000
     2  O    1.211312   0.000000
     3  H    1.103190   2.022559   0.000000
     4  H    1.103189   2.022554   1.876166   0.000000
 Stoichiometry    CH2O
 Framework group  C1[X(CH2O)]
 Deg. of freedom     6
 Full point group                 C1      NOp   1
 Largest Abelian subgroup         C1      NOp   1
 Largest concise Abelian subgroup C1      NOp   1
                         Standard orientation:                         
 ---------------------------------------------------------------------
 Center     Atomic      Atomic             Coordinates (Angstroms)
 Number     Number       Type             X           Y           Z
 ---------------------------------------------------------------------
      1          6           0        0.533088    0.000000    0.000002
      2          8           0       -0.678224   -0.000001   -0.000005
      3          1           0        1.113633   -0.938081   -0.000007
      4          1           0        1.113625    0.938085    0.000032
 ---------------------------------------------------------------------
 Rotational constants (GHZ):         284.9179011          38.5632784          33.9660204
 Leave Link  202 at Mon Nov 25 12:17:10 2024, MaxMem=   104857600 cpu:               0.0 elap:               0.0
 (Enter /mlatom/software/Gaussian/g16-avx2/l301.exe)
 Standard basis: STO-3G (5D, 7F)
 Ernie: Thresh=  0.10000D-02 Tol=  0.10000D-05 Strict=F.
 There are    12 symmetry adapted cartesian basis functions of A   symmetry.
 There are    12 symmetry adapted basis functions of A   symmetry.
    12 basis functions,    36 primitive gaussians,    12 cartesian basis functions
     8 alpha electrons        8 beta electrons
       nuclear repulsion energy        31.1938289323 Hartrees.
 IExCor=    0 DFT=F Ex=HF Corr=None ExCW=0 ScaHFX=  1.000000
 ScaDFX=  1.000000  1.000000  1.000000  1.000000 ScalE2=  1.000000  1.000000
 IRadAn=      5 IRanWt=     -1 IRanGd=            0 ICorTp=0 IEmpDi=  4
 NAtoms=    4 NActive=    4 NUniq=    4 SFac= 1.00D+00 NAtFMM=   60 NAOKFM=F Big=F
 Integral buffers will be    131072 words long.
 Raffenetti 1 integral format.
 Two-electron integral symmetry is turned on.
 Leave Link  301 at Mon Nov 25 12:17:10 2024, MaxMem=   104857600 cpu:               0.0 elap:               0.1
 (Enter /mlatom/software/Gaussian/g16-avx2/l402.exe)
 External calculation of energy, first and second derivatives.
 Running external command "/mlatom/software/miniconda3/bin/python /mlatom/home/fatemealavi/mlatom_devBranch/mlatom/interfaces/gaussian_interface.py model_predict_kwargs R"
         input file       "/mlatom/home/fatemealavi/anharmonic/ANI_1ccx_H2CO_new_model/H2CO_ANI_1ccx_TLOnCCSDT_SP_energyShifter_FixL1and7/freq_H2CO_by_TL_ani_1ccx/Gau-199061.EIn"
         output file      "/mlatom/home/fatemealavi/anharmonic/ANI_1ccx_H2CO_new_model/H2CO_ANI_1ccx_TLOnCCSDT_SP_energyShifter_FixL1and7/freq_H2CO_by_TL_ani_1ccx/Gau-199061.EOu"
         message file     "/mlatom/home/fatemealavi/anharmonic/ANI_1ccx_H2CO_new_model/H2CO_ANI_1ccx_TLOnCCSDT_SP_energyShifter_FixL1and7/freq_H2CO_by_TL_ani_1ccx/Gau-199061.EMs"
         fchk file        "/mlatom/home/fatemealavi/anharmonic/ANI_1ccx_H2CO_new_model/H2CO_ANI_1ccx_TLOnCCSDT_SP_energyShifter_FixL1and7/freq_H2CO_by_TL_ani_1ccx/Gau-199061.EFC"
         mat. el file     "/mlatom/home/fatemealavi/anharmonic/ANI_1ccx_H2CO_new_model/H2CO_ANI_1ccx_TLOnCCSDT_SP_energyShifter_FixL1and7/freq_H2CO_by_TL_ani_1ccx/Gau-199061.EUF"
model loaded from /mlatom/home/fatemealavi/anharmonic/ANI_1ccx_H2CO_new_model/H2CO_ANI_1ccx_TLOnCCSDT_SP_energyShifter_FixL1and7/ani1ccx_gelu_TL_ani1x_gelu_byFateme/cv0.pt
model loaded from /mlatom/home/fatemealavi/anharmonic/ANI_1ccx_H2CO_new_model/H2CO_ANI_1ccx_TLOnCCSDT_SP_energyShifter_FixL1and7/ani1ccx_gelu_TL_ani1x_gelu_byFateme/cv1.pt
model loaded from /mlatom/home/fatemealavi/anharmonic/ANI_1ccx_H2CO_new_model/H2CO_ANI_1ccx_TLOnCCSDT_SP_energyShifter_FixL1and7/ani1ccx_gelu_TL_ani1x_gelu_byFateme/cv2.pt
model loaded from /mlatom/home/fatemealavi/anharmonic/ANI_1ccx_H2CO_new_model/H2CO_ANI_1ccx_TLOnCCSDT_SP_energyShifter_FixL1and7/ani1ccx_gelu_TL_ani1x_gelu_byFateme/cv3.pt
model loaded from /mlatom/home/fatemealavi/anharmonic/ANI_1ccx_H2CO_new_model/H2CO_ANI_1ccx_TLOnCCSDT_SP_energyShifter_FixL1and7/ani1ccx_gelu_TL_ani1x_gelu_byFateme/cv4.pt
model loaded from /mlatom/home/fatemealavi/anharmonic/ANI_1ccx_H2CO_new_model/H2CO_ANI_1ccx_TLOnCCSDT_SP_energyShifter_FixL1and7/ani1ccx_gelu_TL_ani1x_gelu_byFateme/cv5.pt
model loaded from /mlatom/home/fatemealavi/anharmonic/ANI_1ccx_H2CO_new_model/H2CO_ANI_1ccx_TLOnCCSDT_SP_energyShifter_FixL1and7/ani1ccx_gelu_TL_ani1x_gelu_byFateme/cv6.pt
model loaded from /mlatom/home/fatemealavi/anharmonic/ANI_1ccx_H2CO_new_model/H2CO_ANI_1ccx_TLOnCCSDT_SP_energyShifter_FixL1and7/ani1ccx_gelu_TL_ani1x_gelu_byFateme/cv7.pt
 Recovered energy=-0.582739206522     dipole=      0.000000000000      0.000000000000      0.000000000000
 Energy=   -0.582739207     NIter=   0.
 Dipole moment=       0.000000       0.000000       0.000000
 Leave Link  402 at Mon Nov 25 12:17:15 2024, MaxMem=   104857600 cpu:               0.0 elap:               5.0
 (Enter /mlatom/software/Gaussian/g16-avx2/l601.exe)
 Leave Link  601 at Mon Nov 25 12:17:15 2024, MaxMem=   104857600 cpu:               0.0 elap:               0.0
 (Enter /mlatom/software/Gaussian/g16-avx2/l716.exe)
 Dipole        = 0.00000000D+00 0.00000000D+00 0.00000000D+00
 Full mass-weighted force constant matrix:
 Low frequencies ---  -35.3896  -16.9169  -12.6171    0.1215    2.7154   23.7559
 Low frequencies --- 1181.7645 1261.5255 1530.6489
 Diagonal vibrational polarizability:
        0.0000000       0.0000000       0.0000000
 Harmonic frequencies (cm**-1), IR intensities (KM/Mole), Raman scattering
 activities (A**4/AMU), depolarization ratios for plane and unpolarized
 incident light, reduced masses (AMU), force constants (mDyne/A),
 and normal coordinates:
                      1                      2                      3
                      A                      A                      A
 Frequencies --   1181.7643              1261.5253              1530.6489
 Red. masses --      1.3629                 1.3360                 1.1379
 Frc consts  --      1.1214                 1.2527                 1.5707
 IR Inten    --      0.0000                 0.0000                 0.0000
  Atom  AN      X      Y      Z        X      Y      Z        X      Y      Z
     1   6     0.00   0.00  -0.17    -0.00   0.15   0.00     0.02  -0.00  -0.00
     2   8    -0.00  -0.00   0.04    -0.00  -0.08  -0.00    -0.09   0.00  -0.00
     3   1    -0.00  -0.00   0.70    -0.65  -0.25  -0.00     0.62   0.34   0.00
     4   1    -0.00  -0.00   0.70     0.65  -0.25  -0.00     0.62  -0.34   0.00
                      4                      5                      6
                      A                      A                      A
 Frequencies --   1766.6540              2931.6457              2998.8428
 Red. masses --      6.2359                 1.0440                 1.1217
 Frc consts  --     11.4671                 5.2866                 5.9433
 IR Inten    --      0.0000                 0.0000                 0.0000
  Atom  AN      X      Y      Z        X      Y      Z        X      Y      Z
     1   6     0.54   0.00   0.00    -0.06  -0.00  -0.00     0.00  -0.10  -0.00
     2   8    -0.37  -0.00  -0.00    -0.00   0.00  -0.00     0.00   0.00   0.00
     3   1    -0.28  -0.46  -0.00     0.35  -0.61  -0.00    -0.37   0.60   0.00
     4   1    -0.28   0.46   0.00     0.35   0.61   0.00     0.37   0.60   0.00

 -------------------
 - Thermochemistry -
 -------------------
 Temperature   298.150 Kelvin.  Pressure   1.00000 Atm.
 Atom     1 has atomic number  6 and mass  12.00000
 Atom     2 has atomic number  8 and mass  15.99491
 Atom     3 has atomic number  1 and mass   1.00783
 Atom     4 has atomic number  1 and mass   1.00783
 Molecular mass:    30.01056 amu.
 Principal axes and moments of inertia in atomic units:
                           1         2         3
     Eigenvalues --     6.33425  46.79948  53.13373
           X            1.00000  -0.00000  -0.00001
           Y            0.00000   1.00000  -0.00002
           Z            0.00001   0.00002   1.00000
 This molecule is an asymmetric top.
 Rotational symmetry number  1.
 Rotational temperatures (Kelvin)     13.67390     1.85075     1.63011
 Rotational constants (GHZ):         284.91790    38.56328    33.96602
 Zero-point vibrational energy      69808.6 (Joules/Mol)
                                   16.68465 (Kcal/Mol)
 Vibrational temperatures:   1700.30  1815.05  2202.26  2541.82  4217.98
          (Kelvin)           4314.67
 
 Zero-point correction=                           0.026589 (Hartree/Particle)
 Thermal correction to Energy=                    0.029458
 Thermal correction to Enthalpy=                  0.030402
 Thermal correction to Gibbs Free Energy=         0.004923
 Sum of electronic and zero-point Energies=             -0.556151
 Sum of electronic and thermal Energies=                -0.553281
 Sum of electronic and thermal Enthalpies=              -0.552337
 Sum of electronic and thermal Free Energies=           -0.577817
 
                     E (Thermal)             CV                S
                      KCal/Mol        Cal/Mol-Kelvin    Cal/Mol-Kelvin
 Total                   18.485              6.443             53.627
 Electronic               0.000              0.000              0.000
 Translational            0.889              2.981             36.130
 Rotational               0.889              2.981             17.406
 Vibrational             16.708              0.481              0.091
                       Q            Log10(Q)             Ln(Q)
 Total Bot       0.544159D-02         -2.264274         -5.213683
 Total V=0       0.923971D+10          9.965659         22.946777
 Vib (Bot)       0.592737D-12        -12.227138        -28.154025
 Vib (V=0)       0.100646D+01          0.002795          0.006435
 Electronic      0.100000D+01          0.000000          0.000000
 Translational   0.646197D+07          6.810365         15.681445
 Rotational      0.142069D+04          3.152499          7.258897
 ***** Axes restored to original set *****
 -------------------------------------------------------------------
 Center     Atomic                   Forces (Hartrees/Bohr)
 Number     Number              X              Y              Z
 -------------------------------------------------------------------
      1        6          -0.000468492   -0.000000433    0.000001578
      2        8           0.000234813    0.000000574   -0.000000511
      3        1           0.000117253    0.000019280   -0.000000534
      4        1           0.000116426   -0.000019420   -0.000000533
 -------------------------------------------------------------------
 Cartesian Forces:  Max     0.000468492 RMS     0.000158818
 Z-matrix is all fixed cartesians, so copy forces.
 Force constants in Cartesian coordinates: 
                1             2             3             4             5 
      1  0.943333D+00
      2  0.000000D+00  0.591551D+00
      3 -0.664506D-05 -0.886829D-05  0.166673D+00
      4 -0.745299D+00  0.000000D+00  0.475057D-05  0.826564D+00
      5  0.000000D+00 -0.102554D+00  0.102691D-05  0.111789D-05  0.706376D-01
      6  0.429473D-05  0.102691D-05 -0.538618D-01 -0.534185D-05 -0.112218D-05
      7 -0.990175D-01  0.844760D-01  0.000000D+00 -0.406323D-01  0.361208D-01
      8  0.826170D-01 -0.244231D+00  0.247901D-05  0.144176D-01  0.159584D-01
      9  0.000000D+00  0.196244D-05 -0.564055D-01  0.000000D+00  0.000000D+00
     10 -0.990161D-01 -0.844756D-01  0.271059D-05 -0.406328D-01 -0.361213D-01
     11 -0.826168D-01 -0.244233D+00  0.536237D-05 -0.144179D-01  0.159582D-01
     12  0.289970D-05  0.587894D-05 -0.564055D-01  0.000000D+00  0.000000D+00
                6             7             8             9            10 
      6  0.173813D-01
      7  0.000000D+00  0.130460D+00
      8  0.000000D+00 -0.108816D+00  0.246748D+00
      9  0.182401D-01  0.000000D+00 -0.285785D-05  0.190773D-01
     10  0.127756D-05  0.919832D-02  0.117812D-01  0.000000D+00  0.130451D+00
     11  0.000000D+00 -0.117810D-01 -0.184760D-01  0.107052D-05  0.108816D+00
     12  0.182404D-01  0.000000D+00  0.000000D+00  0.190881D-01 -0.382548D-05
               11            12 
     11  0.246751D+00
     12 -0.664702D-05  0.190771D-01
 Leave Link  716 at Mon Nov 25 12:17:15 2024, MaxMem=   104857600 cpu:               0.0 elap:               0.1
 (Enter /mlatom/software/Gaussian/g16-avx2/l103.exe)

 GradGradGradGradGradGradGradGradGradGradGradGradGradGradGradGradGradGrad
 Berny optimization.
 Search for a local minimum.
 Step number   1 out of a maximum of    2
 All quantities printed in internal units (Hartrees-Bohrs-Radians)
 Second derivative matrix not updated -- analytic derivatives used.
 The second derivative matrix:
                          X1        Y1        Z1        X2        Y2
           X1           0.94333
           Y1           0.00000   0.59155
           Z1          -0.00001  -0.00001   0.16667
           X2          -0.74530  -0.00000   0.00000   0.82656
           Y2          -0.00000  -0.10255   0.00000   0.00000   0.07064
           Z2           0.00000   0.00000  -0.05386  -0.00001  -0.00000
           X3          -0.09902   0.08448  -0.00000  -0.04063   0.03612
           Y3           0.08262  -0.24423   0.00000   0.01442   0.01596
           Z3          -0.00000   0.00000  -0.05641  -0.00000  -0.00000
           X4          -0.09902  -0.08448   0.00000  -0.04063  -0.03612
           Y4          -0.08262  -0.24423   0.00001  -0.01442   0.01596
           Z4           0.00000   0.00001  -0.05641   0.00000   0.00000
                          Z2        X3        Y3        Z3        X4
           Z2           0.01738
           X3          -0.00000   0.13046
           Y3          -0.00000  -0.10882   0.24675
           Z3           0.01824   0.00000  -0.00000   0.01908
           X4           0.00000   0.00920   0.01178  -0.00000   0.13045
           Y4           0.00000  -0.01178  -0.01848   0.00000   0.10882
           Z4           0.01824   0.00000   0.00000   0.01909  -0.00000
                          Y4        Z4
           Y4           0.24675
           Z4          -0.00001   0.01908
 ITU=  0
     Eigenvalues ---    0.12236   0.14322   0.18547   0.36566   0.74186
     Eigenvalues ---    1.63708
 Angle between quadratic step and forces=  58.44 degrees.
 Linear search not attempted -- first point.
 B after Tr=    -0.000243    0.000001    0.000000
         Rot=    1.000000   -0.000000   -0.000000   -0.000000 Ang=  -0.00 deg.
 Variable       Old X    -DE/DX   Delta X   Delta X   Delta X     New X
                                 (Linear)    (Quad)   (Total)
    X1       -1.00739  -0.00047   0.00000  -0.00052  -0.00076  -1.00815
    Y1       -0.00000  -0.00000   0.00000  -0.00000  -0.00000  -0.00000
    Z1        0.00000   0.00000   0.00000   0.00001   0.00001   0.00001
    X2        1.28166   0.00023   0.00000  -0.00012  -0.00037   1.28129
    Y2        0.00000   0.00000   0.00000   0.00000   0.00000   0.00000
    Z2       -0.00001  -0.00000   0.00000  -0.00000  -0.00000  -0.00001
    X3       -2.10446   0.00012   0.00000   0.00081   0.00057  -2.10390
    Y3        1.77272   0.00002   0.00000   0.00054   0.00054   1.77325
    Z3       -0.00001  -0.00000   0.00000  -0.00000  -0.00000  -0.00002
    X4       -2.10445   0.00012   0.00000   0.00080   0.00056  -2.10389
    Y4       -1.77272  -0.00002   0.00000  -0.00054  -0.00054  -1.77326
    Z4        0.00006  -0.00000   0.00000  -0.00000  -0.00000   0.00006
         Item               Value     Threshold  Converged?
 Maximum Force            0.000468     0.000450     NO 
 RMS     Force            0.000159     0.000300     YES
 Maximum Displacement     0.000761     0.001800     YES
 RMS     Displacement     0.000400     0.001200     YES
 Predicted change in Energy=-2.115305D-07
 GradGradGradGradGradGradGradGradGradGradGradGradGradGradGradGradGradGrad

 Leave Link  103 at Mon Nov 25 12:17:15 2024, MaxMem=   104857600 cpu:               0.0 elap:               0.1
 (Enter /mlatom/software/Gaussian/g16-avx2/l9999.exe)
 1\1\GINC-B003\Freq\RExternal='/mlatom/software/miniconda3/bin/python /
 mlatom/home/fatemealavi/mlatom\ZDO\C1H2O1\UNKNOWN\25-Nov-2024\0\\#p fr
 eq external='/mlatom/software/miniconda3/bin/python /mlatom/home/fatem
 ealavi/mlatom_devBranch/mlatom/interfaces/gaussian_interface.py model_
 predict_kwargs'\\7e571614-236f-4b7e-aa6b-09bb26c16908\\0,1\C,-0.533088
 3366,-0.0000000495,0.0000020984\O,0.6782235186,0.0000005195,-0.0000047
 683\H,-1.1136329424,0.9380808467,-0.0000068036\H,-1.1136251868,-0.9380
 847056,0.0000323594\\Version=ES64L-G16RevA.03\HF=-0.5827392\RMSD=0.000
 e+00\RMSF=1.588e-04\ZeroPoint=0.0265887\Thermal=0.0294583\Dipole=0.,0.
 ,0.\PG=C01 [X(C1H2O1)]\NImag=0\\0.94333261,0.00000047,0.59155107,-0.00
 000665,-0.00000887,0.16667283,-0.74529904,-0.00000089,0.00000475,0.826
 56401,-0.00000066,-0.10255418,0.00000103,0.00000112,0.07063759,0.00000
 429,0.00000103,-0.05386182,-0.00000534,-0.00000112,0.01738130,-0.09901
 749,0.08447600,-0.00000082,-0.04063229,0.03612081,-0.00000023,0.130459
 89,0.08261699,-0.24423082,0.00000248,0.01441763,0.01595842,-0.00000012
 ,-0.10881581,0.24674840,-0.00000055,0.00000196,-0.05640547,0.,-0.00000
 018,0.01824013,0.00000072,-0.00000286,0.01907727,-0.09901613,-0.084475
 58,0.00000271,-0.04063275,-0.03612126,0.00000128,0.00919832,0.01178120
 ,-0.00000016,0.13045055,-0.08261678,-0.24423298,0.00000536,-0.01441786
 ,0.01595818,0.00000021,-0.01178101,-0.01847599,0.00000107,0.10881565,0
 .24675077,0.00000290,0.00000588,-0.05640552,0.00000060,0.00000027,0.01
 824039,0.00000033,0.00000050,0.01908807,-0.00000383,-0.00000665,0.0190
 7706\\0.00046849,0.00000043,-0.00000158,-0.00023481,-0.00000057,0.0000
 0051,-0.00011725,-0.00001928,0.00000053,-0.00011643,0.00001942,0.00000
 053\\\@


 The theorems and results in mathematical physics are
 not theorems and results about Nature, but about our
 description of it.
                   --Gerard 't Hooft
 Job cpu time:       0 days  0 hours  0 minutes  0.4 seconds.
 Elapsed time:       0 days  0 hours  0 minutes  5.6 seconds.
 File lengths (MBytes):  RWF=     22 Int=      0 D2E=      0 Chk=      2 Scr=      2
 Normal termination of Gaussian 16 at Mon Nov 25 12:17:15 2024.
