 Entering Gaussian System, Link 0=/mlatom/software/Gaussian/g16-avx2/g16
 Input=gaussian.com
 Output=gaussian.log
 Initial command:
 /mlatom/software/Gaussian/g16-avx2/l1.exe "/mlatom/home/fatemealavi/anharmonic/ANI_1ccx_HCOOH_new_model/HCOOH_ANI_1ccx_TLOnCCSDT_SP_energyShifter_FixL5and7/freq_HCOOH_by_TL_ani_1ccx/Gau-211858.inp" -scrdir="/mlatom/home/fatemealavi/anharmonic/ANI_1ccx_HCOOH_new_model/HCOOH_ANI_1ccx_TLOnCCSDT_SP_energyShifter_FixL5and7/freq_HCOOH_by_TL_ani_1ccx/"
 Entering Link 1 = /mlatom/software/Gaussian/g16-avx2/l1.exe PID=    211859.
  
 Copyright (c) 1988,1990,1992,1993,1995,1998,2003,2009,2016,
            Gaussian, Inc.  All Rights Reserved.
  
 This is part of the Gaussian(R) 16 program.  It is based on
 the Gaussian(R) 09 system (copyright 2009, Gaussian, Inc.),
 the Gaussian(R) 03 system (copyright 2003, Gaussian, Inc.),
 the Gaussian(R) 98 system (copyright 1998, Gaussian, Inc.),
 the Gaussian(R) 94 system (copyright 1995, Gaussian, Inc.),
 the Gaussian 92(TM) system (copyright 1992, Gaussian, Inc.),
 the Gaussian 90(TM) system (copyright 1990, Gaussian, Inc.),
 the Gaussian 88(TM) system (copyright 1988, Gaussian, Inc.),
 the Gaussian 86(TM) system (copyright 1986, Carnegie Mellon
 University), and the Gaussian 82(TM) system (copyright 1983,
 Carnegie Mellon University). Gaussian is a federally registered
 trademark of Gaussian, Inc.
  
 This software contains proprietary and confidential information,
 including trade secrets, belonging to Gaussian, Inc.
  
 This software is provided under written license and may be
 used, copied, transmitted, or stored only in accord with that
 written license.
  
 The following legend is applicable only to US Government
 contracts under FAR:
  
                    RESTRICTED RIGHTS LEGEND
  
 Use, reproduction and disclosure by the US Government is
 subject to restrictions as set forth in subparagraphs (a)
 and (c) of the Commercial Computer Software - Restricted
 Rights clause in FAR 52.227-19.
  
 Gaussian, Inc.
 340 Quinnipiac St., Bldg. 40, Wallingford CT 06492
  
  
 ---------------------------------------------------------------
 Warning -- This program may not be used in any manner that
 competes with the business of Gaussian, Inc. or will provide
 assistance to any competitor of Gaussian, Inc.  The licensee
 of this program is prohibited from giving any competitor of
 Gaussian, Inc. access to this program.  By using this program,
 the user acknowledges that Gaussian, Inc. is engaged in the
 business of creating and licensing software in the field of
 computational chemistry and represents and warrants to the
 licensee that it is not a competitor of Gaussian, Inc. and that
 it will not use this program in any manner prohibited above.
 ---------------------------------------------------------------
  

 Cite this work as:
 Gaussian 16, Revision A.03,
 M. J. Frisch, G. W. Trucks, H. B. Schlegel, G. E. Scuseria, 
 M. A. Robb, J. R. Cheeseman, G. Scalmani, V. Barone, 
 G. A. Petersson, H. Nakatsuji, X. Li, M. Caricato, A. V. Marenich, 
 J. Bloino, B. G. Janesko, R. Gomperts, B. Mennucci, H. P. Hratchian, 
 J. V. Ortiz, A. F. Izmaylov, J. L. Sonnenberg, D. Williams-Young, 
 F. Ding, F. Lipparini, F. Egidi, J. Goings, B. Peng, A. Petrone, 
 T. Henderson, D. Ranasinghe, V. G. Zakrzewski, J. Gao, N. Rega, 
 G. Zheng, W. Liang, M. Hada, M. Ehara, K. Toyota, R. Fukuda, 
 J. Hasegawa, M. Ishida, T. Nakajima, Y. Honda, O. Kitao, H. Nakai, 
 T. Vreven, K. Throssell, J. A. Montgomery, Jr., J. E. Peralta, 
 F. Ogliaro, M. J. Bearpark, J. J. Heyd, E. N. Brothers, K. N. Kudin, 
 V. N. Staroverov, T. A. Keith, R. Kobayashi, J. Normand, 
 K. Raghavachari, A. P. Rendell, J. C. Burant, S. S. Iyengar, 
 J. Tomasi, M. Cossi, J. M. Millam, M. Klene, C. Adamo, R. Cammi, 
 J. W. Ochterski, R. L. Martin, K. Morokuma, O. Farkas, 
 J. B. Foresman, and D. J. Fox, Gaussian, Inc., Wallingford CT, 2016.
 
 ******************************************
 Gaussian 16:  ES64L-G16RevA.03 25-Dec-2016
                25-Nov-2024 
 ******************************************
 %nproc=1
 Will use up to    1 processors via shared memory.
 ----------------------------------------------------------------------
 #p freq external='/mlatom/software/miniconda3/bin/python /mlatom/home/
 fatemealavi/mlatom_devBranch/mlatom/interfaces/gaussian_interface.py m
 odel_predict_kwargs'
 ----------------------------------------------------------------------
 1/10=4,18=10,30=1,38=1/1,3;
 2/12=2,17=6,18=5,40=1/2;
 3/11=9,25=1,30=1,41=9900000,43=2,71=2,140=1/1;
 4/20=17,22=2,24=3,113=1,114=1/2;
 6/7=2,8=2,9=2,10=2/1;
 7/8=1,25=1,44=-1/16;
 1/10=4,18=10,30=1/3;
 99//99;
 Leave Link    1 at Mon Nov 25 15:27:09 2024, MaxMem=           0 cpu:               0.0 elap:               0.0
 (Enter /mlatom/software/Gaussian/g16-avx2/l101.exe)
 ------------------------------------
 06fa8f1c-d54d-4d4a-b7f8-7486c9556c30
 ------------------------------------
 Symbolic Z-matrix:
 Charge =  0 Multiplicity = 1
 C                    -0.13373   0.40135   0.00003 
 O                    -1.13731  -0.26378  -0.00001 
 O                     1.12075  -0.09189  -0.00001 
 H                    -0.10361   1.49567   0.00003 
 H                     1.03848  -1.05844  -0.00004 
 
 ITRead=  0  0  0  0  0
 MicOpt= -1 -1 -1 -1 -1
 NAtoms=      5 NQM=        5 NQMF=       0 NMMI=      0 NMMIF=      0
                NMic=       0 NMicF=      0.
                    Isotopes and Nuclear Properties:
 (Nuclear quadrupole moments (NQMom) in fm**2, nuclear magnetic moments (NMagM)
  in nuclear magnetons)

  Atom         1           2           3           4           5
 IAtWgt=          12          16          16           1           1
 AtmWgt=  12.0000000  15.9949146  15.9949146   1.0078250   1.0078250
 NucSpn=           0           0           0           1           1
 AtZEff=  -0.0000000  -0.0000000  -0.0000000  -0.0000000  -0.0000000
 NQMom=    0.0000000   0.0000000   0.0000000   0.0000000   0.0000000
 NMagM=    0.0000000   0.0000000   0.0000000   2.7928460   2.7928460
 AtZNuc=   6.0000000   8.0000000   8.0000000   1.0000000   1.0000000
 Leave Link  101 at Mon Nov 25 15:27:09 2024, MaxMem=   104857600 cpu:               0.1 elap:               0.1
 (Enter /mlatom/software/Gaussian/g16-avx2/l103.exe)

 GradGradGradGradGradGradGradGradGradGradGradGradGradGradGradGradGradGrad
 Berny optimization.
 Initialization pass.
 Trust Radius=3.00D-01 FncErr=1.00D-07 GrdErr=1.00D-07 EigMax=2.50D+02 EigMin=1.00D-04
 Number of steps in this run=      2 maximum allowed number of steps=      2.
 GradGradGradGradGradGradGradGradGradGradGradGradGradGradGradGradGradGrad

 Leave Link  103 at Mon Nov 25 15:27:09 2024, MaxMem=   104857600 cpu:               0.0 elap:               0.0
 (Enter /mlatom/software/Gaussian/g16-avx2/l202.exe)
                          Input orientation:                          
 ---------------------------------------------------------------------
 Center     Atomic      Atomic             Coordinates (Angstroms)
 Number     Number       Type             X           Y           Z
 ---------------------------------------------------------------------
      1          6           0       -0.133735    0.401352    0.000025
      2          8           0       -1.137309   -0.263783   -0.000010
      3          8           0        1.120751   -0.091886   -0.000008
      4          1           0       -0.103608    1.495674    0.000034
      5          1           0        1.038477   -1.058440   -0.000039
 ---------------------------------------------------------------------
                    Distance matrix (angstroms):
                    1          2          3          4          5
     1  C    0.000000
     2  O    1.203980   0.000000
     3  O    1.347968   2.264594   0.000000
     4  H    1.094737   2.040644   2.004844   0.000000
     5  H    1.872184   2.316361   0.970049   2.797831   0.000000
 Stoichiometry    CH2O2
 Framework group  C1[X(CH2O2)]
 Deg. of freedom     9
 Full point group                 C1      NOp   1
 Largest Abelian subgroup         C1      NOp   1
 Largest concise Abelian subgroup C1      NOp   1
                         Standard orientation:                         
 ---------------------------------------------------------------------
 Center     Atomic      Atomic             Coordinates (Angstroms)
 Number     Number       Type             X           Y           Z
 ---------------------------------------------------------------------
      1          6           0       -0.133735    0.401352    0.000025
      2          8           0       -1.137309   -0.263783   -0.000010
      3          8           0        1.120751   -0.091886   -0.000008
      4          1           0       -0.103608    1.495674    0.000034
      5          1           0        1.038477   -1.058440   -0.000039
 ---------------------------------------------------------------------
 Rotational constants (GHZ):          77.5396702          11.9995764          10.3914566
 Leave Link  202 at Mon Nov 25 15:27:09 2024, MaxMem=   104857600 cpu:               0.0 elap:               0.0
 (Enter /mlatom/software/Gaussian/g16-avx2/l301.exe)
 Standard basis: STO-3G (5D, 7F)
 Ernie: Thresh=  0.10000D-02 Tol=  0.10000D-05 Strict=F.
 There are    17 symmetry adapted cartesian basis functions of A   symmetry.
 There are    17 symmetry adapted basis functions of A   symmetry.
    17 basis functions,    51 primitive gaussians,    17 cartesian basis functions
    12 alpha electrons       12 beta electrons
       nuclear repulsion energy        70.0590562610 Hartrees.
 IExCor=    0 DFT=F Ex=HF Corr=None ExCW=0 ScaHFX=  1.000000
 ScaDFX=  1.000000  1.000000  1.000000  1.000000 ScalE2=  1.000000  1.000000
 IRadAn=      5 IRanWt=     -1 IRanGd=            0 ICorTp=0 IEmpDi=  4
 NAtoms=    5 NActive=    5 NUniq=    5 SFac= 1.00D+00 NAtFMM=   60 NAOKFM=F Big=F
 Integral buffers will be    131072 words long.
 Raffenetti 1 integral format.
 Two-electron integral symmetry is turned on.
 Leave Link  301 at Mon Nov 25 15:27:09 2024, MaxMem=   104857600 cpu:               0.0 elap:               0.1
 (Enter /mlatom/software/Gaussian/g16-avx2/l402.exe)
 External calculation of energy, first and second derivatives.
 Running external command "/mlatom/software/miniconda3/bin/python /mlatom/home/fatemealavi/mlatom_devBranch/mlatom/interfaces/gaussian_interface.py model_predict_kwargs R"
         input file       "/mlatom/home/fatemealavi/anharmonic/ANI_1ccx_HCOOH_new_model/HCOOH_ANI_1ccx_TLOnCCSDT_SP_energyShifter_FixL5and7/freq_HCOOH_by_TL_ani_1ccx/Gau-211859.EIn"
         output file      "/mlatom/home/fatemealavi/anharmonic/ANI_1ccx_HCOOH_new_model/HCOOH_ANI_1ccx_TLOnCCSDT_SP_energyShifter_FixL5and7/freq_HCOOH_by_TL_ani_1ccx/Gau-211859.EOu"
         message file     "/mlatom/home/fatemealavi/anharmonic/ANI_1ccx_HCOOH_new_model/HCOOH_ANI_1ccx_TLOnCCSDT_SP_energyShifter_FixL5and7/freq_HCOOH_by_TL_ani_1ccx/Gau-211859.EMs"
         fchk file        "/mlatom/home/fatemealavi/anharmonic/ANI_1ccx_HCOOH_new_model/HCOOH_ANI_1ccx_TLOnCCSDT_SP_energyShifter_FixL5and7/freq_HCOOH_by_TL_ani_1ccx/Gau-211859.EFC"
         mat. el file     "/mlatom/home/fatemealavi/anharmonic/ANI_1ccx_HCOOH_new_model/HCOOH_ANI_1ccx_TLOnCCSDT_SP_energyShifter_FixL5and7/freq_HCOOH_by_TL_ani_1ccx/Gau-211859.EUF"
model loaded from /mlatom/home/fatemealavi/anharmonic/ANI_1ccx_HCOOH_new_model/HCOOH_ANI_1ccx_TLOnCCSDT_SP_energyShifter_FixL5and7/ani1ccx_gelu_TL_CCSDT_HCOOH_byFateme/cv0.pt
model loaded from /mlatom/home/fatemealavi/anharmonic/ANI_1ccx_HCOOH_new_model/HCOOH_ANI_1ccx_TLOnCCSDT_SP_energyShifter_FixL5and7/ani1ccx_gelu_TL_CCSDT_HCOOH_byFateme/cv1.pt
model loaded from /mlatom/home/fatemealavi/anharmonic/ANI_1ccx_HCOOH_new_model/HCOOH_ANI_1ccx_TLOnCCSDT_SP_energyShifter_FixL5and7/ani1ccx_gelu_TL_CCSDT_HCOOH_byFateme/cv2.pt
model loaded from /mlatom/home/fatemealavi/anharmonic/ANI_1ccx_HCOOH_new_model/HCOOH_ANI_1ccx_TLOnCCSDT_SP_energyShifter_FixL5and7/ani1ccx_gelu_TL_CCSDT_HCOOH_byFateme/cv3.pt
model loaded from /mlatom/home/fatemealavi/anharmonic/ANI_1ccx_HCOOH_new_model/HCOOH_ANI_1ccx_TLOnCCSDT_SP_energyShifter_FixL5and7/ani1ccx_gelu_TL_CCSDT_HCOOH_byFateme/cv4.pt
model loaded from /mlatom/home/fatemealavi/anharmonic/ANI_1ccx_HCOOH_new_model/HCOOH_ANI_1ccx_TLOnCCSDT_SP_energyShifter_FixL5and7/ani1ccx_gelu_TL_CCSDT_HCOOH_byFateme/cv5.pt
model loaded from /mlatom/home/fatemealavi/anharmonic/ANI_1ccx_HCOOH_new_model/HCOOH_ANI_1ccx_TLOnCCSDT_SP_energyShifter_FixL5and7/ani1ccx_gelu_TL_CCSDT_HCOOH_byFateme/cv6.pt
model loaded from /mlatom/home/fatemealavi/anharmonic/ANI_1ccx_HCOOH_new_model/HCOOH_ANI_1ccx_TLOnCCSDT_SP_energyShifter_FixL5and7/ani1ccx_gelu_TL_CCSDT_HCOOH_byFateme/cv7.pt
 Recovered energy=-0.778748355039     dipole=      0.000000000000      0.000000000000      0.000000000000
 Energy=   -0.778748355     NIter=   0.
 Dipole moment=       0.000000       0.000000       0.000000
 Leave Link  402 at Mon Nov 25 15:27:14 2024, MaxMem=   104857600 cpu:               0.0 elap:               4.9
 (Enter /mlatom/software/Gaussian/g16-avx2/l601.exe)
 Leave Link  601 at Mon Nov 25 15:27:14 2024, MaxMem=   104857600 cpu:               0.0 elap:               0.0
 (Enter /mlatom/software/Gaussian/g16-avx2/l716.exe)
 Dipole        = 0.00000000D+00 0.00000000D+00 0.00000000D+00
 Full mass-weighted force constant matrix:
 Low frequencies ---   -0.2755    0.0564    0.2765    3.5321    6.1182    7.5489
 Low frequencies ---  626.8616  664.2221 1050.6915
 Diagonal vibrational polarizability:
        0.0000000       0.0000000       0.0000000
 Harmonic frequencies (cm**-1), IR intensities (KM/Mole), Raman scattering
 activities (A**4/AMU), depolarization ratios for plane and unpolarized
 incident light, reduced masses (AMU), force constants (mDyne/A),
 and normal coordinates:
                      1                      2                      3
                      A                      A                      A
 Frequencies --    626.8616               664.2221              1050.6915
 Red. masses --      3.5210                 1.2512                 1.5767
 Frc consts  --      0.8152                 0.3252                 1.0255
 IR Inten    --      0.0000                 0.0000                 0.0000
  Atom  AN      X      Y      Z        X      Y      Z        X      Y      Z
     1   6     0.02   0.23   0.00     0.00   0.00   0.09     0.00   0.00  -0.21
     2   8     0.26  -0.11  -0.00     0.00  -0.00  -0.04     0.00  -0.00   0.06
     3   8    -0.21  -0.08   0.00    -0.00  -0.00  -0.09    -0.00   0.00   0.04
     4   1    -0.09   0.23  -0.00    -0.00   0.00   0.19     0.00  -0.00   0.97
     5   1    -0.87  -0.03  -0.00    -0.00  -0.00   0.97     0.00  -0.00   0.13
                      4                      5                      6
                      A                      A                      A
 Frequencies --   1131.6847              1311.2531              1405.0314
 Red. masses --      3.3510                 1.7335                 1.1377
 Frc consts  --      2.5286                 1.7561                 1.3233
 IR Inten    --      0.0000                 0.0000                 0.0000
  Atom  AN      X      Y      Z        X      Y      Z        X      Y      Z
     1   6    -0.17   0.18   0.00    -0.15   0.17   0.00    -0.01   0.02   0.00
     2   8    -0.10  -0.06  -0.00     0.03  -0.04  -0.00    -0.05  -0.06  -0.00
     3   8     0.30  -0.09  -0.00     0.00  -0.09  -0.00     0.02   0.04   0.00
     4   1    -0.50   0.18   0.00     0.29   0.18   0.00     0.94   0.01  -0.00
     5   1    -0.74  -0.02   0.00     0.90  -0.13  -0.00    -0.31   0.06   0.00
                      7                      8                      9
                      A                      A                      A
 Frequencies --   1802.7272              3087.2461              3741.5749
 Red. masses --      8.0007                 1.0929                 1.0637
 Frc consts  --     15.3192                 6.1375                 8.7740
 IR Inten    --      0.0000                 0.0000                 0.0000
  Atom  AN      X      Y      Z        X      Y      Z        X      Y      Z
     1   6     0.54   0.32   0.00    -0.00  -0.09  -0.00     0.00  -0.00  -0.00
     2   8    -0.35  -0.23  -0.00     0.00   0.00   0.00    -0.00   0.00  -0.00
     3   8    -0.06  -0.02   0.00     0.00   0.00   0.00    -0.00  -0.06  -0.00
     4   1    -0.33   0.40   0.00     0.01   1.00   0.00     0.00   0.02   0.00
     5   1     0.40  -0.05  -0.00    -0.01  -0.02   0.00     0.05   1.00   0.00

 -------------------
 - Thermochemistry -
 -------------------
 Temperature   298.150 Kelvin.  Pressure   1.00000 Atm.
 Atom     1 has atomic number  6 and mass  12.00000
 Atom     2 has atomic number  8 and mass  15.99491
 Atom     3 has atomic number  8 and mass  15.99491
 Atom     4 has atomic number  1 and mass   1.00783
 Atom     5 has atomic number  1 and mass   1.00783
 Molecular mass:    46.00548 amu.
 Principal axes and moments of inertia in atomic units:
                           1         2         3
     Eigenvalues --    23.27507 150.40041 173.67548
           X            0.99940  -0.03470   0.00000
           Y            0.03470   0.99940  -0.00004
           Z           -0.00000   0.00004   1.00000
 This molecule is an asymmetric top.
 Rotational symmetry number  1.
 Rotational temperatures (Kelvin)      3.72132     0.57589     0.49871
 Rotational constants (GHZ):          77.53967    11.99958    10.39146
 Zero-point vibrational energy      88651.0 (Joules/Mol)
                                   21.18810 (Kcal/Mol)
 Vibrational temperatures:    901.91   955.67  1511.71  1628.24  1886.60
          (Kelvin)           2021.53  2593.72  4441.86  5383.29
 
 Zero-point correction=                           0.033765 (Hartree/Particle)
 Thermal correction to Energy=                    0.036943
 Thermal correction to Enthalpy=                  0.037887
 Thermal correction to Gibbs Free Energy=         0.009677
 Sum of electronic and zero-point Energies=             -0.744983
 Sum of electronic and thermal Energies=                -0.741805
 Sum of electronic and thermal Enthalpies=              -0.740861
 Sum of electronic and thermal Free Energies=           -0.769072
 
                     E (Thermal)             CV                S
                      KCal/Mol        Cal/Mol-Kelvin    Cal/Mol-Kelvin
 Total                   23.182              8.687             59.374
 Electronic               0.000              0.000              0.000
 Translational            0.889              2.981             37.404
 Rotational               0.889              2.981             21.036
 Vibrational             21.405              2.725              0.935
                       Q            Log10(Q)             Ln(Q)
 Total Bot       0.353986D-04         -4.451014        -10.248837
 Total V=0       0.120219D+12         11.079974         25.512582
 Vib (Bot)       0.326989D-15        -15.485467        -35.656605
 Vib (V=0)       0.111050D+01          0.045520          0.104815
 Electronic      0.100000D+01          0.000000          0.000000
 Translational   0.122650D+08          7.088668         16.322262
 Rotational      0.882643D+04          3.945785          9.085505
 ***** Axes restored to original set *****
 -------------------------------------------------------------------
 Center     Atomic                   Forces (Hartrees/Bohr)
 Number     Number              X              Y              Z
 -------------------------------------------------------------------
      1        6          -0.000097284    0.000064619   -0.000006864
      2        8           0.000094893   -0.000007968    0.000002514
      3        8          -0.000008822   -0.000034479    0.000001962
      4        1           0.000017890   -0.000027844    0.000002399
      5        1          -0.000006676    0.000005673   -0.000000011
 -------------------------------------------------------------------
 Cartesian Forces:  Max     0.000097284 RMS     0.000040996
 Z-matrix is all fixed cartesians, so copy forces.
 Force constants in Cartesian coordinates: 
                1             2             3             4             5 
      1  0.828628D+00
      2  0.198117D+00  0.844597D+00
      3  0.924761D-05  0.199597D-04  0.188949D+00
      4 -0.531052D+00 -0.308499D+00 -0.143753D-04  0.632903D+00
      5 -0.297751D+00 -0.342803D+00 -0.118191D-04  0.348719D+00  0.315120D+00
      6 -0.154389D-04 -0.131265D-04 -0.707315D-01  0.166448D-04  0.129954D-04
      7 -0.252551D+00  0.571206D-01  0.304742D-05 -0.984795D-01 -0.360539D-02
      8  0.880394D-01 -0.167890D+00 -0.398189D-05 -0.178611D-01  0.418164D-01
      9  0.568131D-05 -0.408657D-05 -0.594309D-01  0.000000D+00  0.000000D+00
     10 -0.492143D-01 -0.413365D-02  0.000000D+00 -0.589090D-02 -0.392086D-01
     11  0.437851D-02 -0.303617D+00 -0.318355D-05 -0.140636D-01 -0.167541D-01
     12  0.000000D+00  0.000000D+00 -0.635096D-01 -0.106832D-05 -0.196680D-05
     13  0.418999D-02  0.573949D-01  0.184319D-05  0.251898D-02 -0.815406D-02
     14  0.721653D-02 -0.302872D-01  0.000000D+00 -0.829607D-02  0.262057D-02
     15  0.000000D+00 -0.223827D-05  0.472251D-02  0.000000D+00  0.000000D+00
                6             7             8             9            10 
      6  0.280670D-01
      7  0.000000D+00  0.411590D+00
      8  0.000000D+00 -0.347435D-01  0.620206D+00
      9  0.278035D-01 -0.398609D-05  0.192471D-04  0.384001D-01
     10 -0.126057D-05 -0.735589D-02  0.376079D-01  0.000000D+00  0.682293D-01
     11  0.000000D+00  0.520196D-02 -0.174753D-01  0.000000D+00  0.230478D-02
     12  0.211738D-01  0.000000D+00 -0.143020D-05  0.107924D-01  0.000000D+00
     13  0.000000D+00 -0.532027D-01 -0.730428D-01 -0.165942D-05 -0.576827D-02
     14  0.000000D+00 -0.239736D-01 -0.476658D+00 -0.150831D-04  0.342959D-02
     15 -0.631277D-02  0.000000D+00 -0.143341D-04 -0.175651D-01  0.000000D+00
               11            12            13            14            15 
     11  0.336926D+00
     12  0.425415D-05  0.256324D-01
     13  0.217838D-02  0.000000D+00  0.522620D-01
     14  0.920571D-03  0.000000D+00  0.216235D-01  0.503404D+00
     15  0.000000D+00  0.591093D-02  0.000000D+00  0.161442D-04  0.132444D-01
 Leave Link  716 at Mon Nov 25 15:27:14 2024, MaxMem=   104857600 cpu:               0.0 elap:               0.1
 (Enter /mlatom/software/Gaussian/g16-avx2/l103.exe)

 GradGradGradGradGradGradGradGradGradGradGradGradGradGradGradGradGradGrad
 Berny optimization.
 Search for a local minimum.
 Step number   1 out of a maximum of    2
 All quantities printed in internal units (Hartrees-Bohrs-Radians)
 Second derivative matrix not updated -- analytic derivatives used.
 The second derivative matrix:
                          X1        Y1        Z1        X2        Y2
           X1           0.82863
           Y1           0.19812   0.84460
           Z1           0.00001   0.00002   0.18895
           X2          -0.53105  -0.30850  -0.00001   0.63290
           Y2          -0.29775  -0.34280  -0.00001   0.34872   0.31512
           Z2          -0.00002  -0.00001  -0.07073   0.00002   0.00001
           X3          -0.25255   0.05712   0.00000  -0.09848  -0.00361
           Y3           0.08804  -0.16789  -0.00000  -0.01786   0.04182
           Z3           0.00001  -0.00000  -0.05943  -0.00000   0.00000
           X4          -0.04921  -0.00413   0.00000  -0.00589  -0.03921
           Y4           0.00438  -0.30362  -0.00000  -0.01406  -0.01675
           Z4           0.00000  -0.00000  -0.06351  -0.00000  -0.00000
           X5           0.00419   0.05739   0.00000   0.00252  -0.00815
           Y5           0.00722  -0.03029  -0.00000  -0.00830   0.00262
           Z5           0.00000  -0.00000   0.00472  -0.00000   0.00000
                          Z2        X3        Y3        Z3        X4
           Z2           0.02807
           X3           0.00000   0.41159
           Y3           0.00000  -0.03474   0.62021
           Z3           0.02780  -0.00000   0.00002   0.03840
           X4          -0.00000  -0.00736   0.03761   0.00000   0.06823
           Y4          -0.00000   0.00520  -0.01748  -0.00000   0.00230
           Z4           0.02117   0.00000  -0.00000   0.01079  -0.00000
           X5          -0.00000  -0.05320  -0.07304  -0.00000  -0.00577
           Y5           0.00000  -0.02397  -0.47666  -0.00002   0.00343
           Z5          -0.00631  -0.00000  -0.00001  -0.01757   0.00000
                          Y4        Z4        X5        Y5        Z5
           Y4           0.33693
           Z4           0.00000   0.02563
           X5           0.00218   0.00000   0.05226
           Y5           0.00092  -0.00000   0.02162   0.50340
           Z5          -0.00000   0.00591  -0.00000   0.00002   0.01324
 ITU=  0
     Eigenvalues ---    0.03070   0.04490   0.11212   0.23106   0.23299
     Eigenvalues ---    0.52337   0.74464   1.01931   1.71485
 Angle between quadratic step and forces=  60.61 degrees.
 Linear search not attempted -- first point.
 B after Tr=     0.000059   -0.000031   -0.000002
         Rot=    1.000000    0.000001   -0.000000   -0.000018 Ang=   0.00 deg.
 Variable       Old X    -DE/DX   Delta X   Delta X   Delta X     New X
                                 (Linear)    (Quad)   (Total)
    X1       -0.25272  -0.00010   0.00000  -0.00006  -0.00003  -0.25275
    Y1        0.75845   0.00006   0.00000   0.00019   0.00015   0.75860
    Z1        0.00005  -0.00001   0.00000  -0.00002  -0.00003   0.00002
    X2       -2.14920   0.00009   0.00000   0.00028   0.00036  -2.14885
    Y2       -0.49848  -0.00001   0.00000  -0.00018  -0.00029  -0.49876
    Z2       -0.00002   0.00000   0.00000   0.00001   0.00001  -0.00001
    X3        2.11791  -0.00001   0.00000  -0.00009  -0.00002   2.11789
    Y3       -0.17364  -0.00003   0.00000  -0.00003   0.00002  -0.17362
    Z3       -0.00001   0.00000   0.00000   0.00000  -0.00000  -0.00001
    X4       -0.19579   0.00002   0.00000   0.00011   0.00007  -0.19572
    Y4        2.82642  -0.00003   0.00000   0.00010   0.00006   2.82647
    Z4        0.00006   0.00000   0.00000   0.00002   0.00001   0.00008
    X5        1.96244  -0.00001   0.00000  -0.00050  -0.00037   1.96207
    Y5       -2.00016   0.00001   0.00000   0.00002   0.00006  -2.00010
    Z5       -0.00007  -0.00000   0.00000   0.00001   0.00001  -0.00007
         Item               Value     Threshold  Converged?
 Maximum Force            0.000097     0.000450     YES
 RMS     Force            0.000041     0.000300     YES
 Maximum Displacement     0.000369     0.001800     YES
 RMS     Displacement     0.000160     0.001200     YES
 Predicted change in Energy=-2.555756D-08
 Optimization completed.
    -- Stationary point found.
 GradGradGradGradGradGradGradGradGradGradGradGradGradGradGradGradGradGrad

 Leave Link  103 at Mon Nov 25 15:27:15 2024, MaxMem=   104857600 cpu:               0.0 elap:               0.1
 (Enter /mlatom/software/Gaussian/g16-avx2/l9999.exe)
 1\1\GINC-B003\Freq\RExternal='/mlatom/software/miniconda3/bin/python /
 mlatom/home/fatemealavi/mlatom\ZDO\C1H2O2\UNKNOWN\25-Nov-2024\0\\#p fr
 eq external='/mlatom/software/miniconda3/bin/python /mlatom/home/fatem
 ealavi/mlatom_devBranch/mlatom/interfaces/gaussian_interface.py model_
 predict_kwargs'\\06fa8f1c-d54d-4d4a-b7f8-7486c9556c30\\0,1\C,-0.133734
 5796,0.4013524818,0.0000252092\O,-1.1373090855,-0.263783168,-0.0000104
 88\O,1.1207512824,-0.0918855517,-0.0000077793\H,-0.1036075868,1.495674
 463,0.0000338718\H,1.038477489,-1.0584395962,-0.0000389879\\Version=ES
 64L-G16RevA.03\HF=-0.7787484\RMSD=0.000e+00\RMSF=4.100e-05\ZeroPoint=0
 .0337654\Thermal=0.0369432\Dipole=0.,0.,0.\PG=C01 [X(C1H2O2)]\NImag=0\
 \0.82862753,0.19811660,0.84459698,0.00000925,0.00001996,0.18894947,-0.
 53105181,-0.30849850,-0.00001438,0.63290334,-0.29775110,-0.34280282,-0
 .00001182,0.34871921,0.31511995,-0.00001544,-0.00001313,-0.07073148,0.
 00001664,0.00001300,0.02806696,-0.25255141,0.05712057,0.00000305,-0.09
 847954,-0.00360539,0.00000042,0.41158959,0.08803944,-0.16788991,-0.000
 00398,-0.01786107,0.04181643,0.00000050,-0.03474353,0.62020630,0.00000
 568,-0.00000409,-0.05943093,-0.00000100,0.00000035,0.02780349,-0.00000
 399,0.00001925,0.03840010,-0.04921427,-0.00413365,0.00000024,-0.005890
 90,-0.03920863,-0.00000126,-0.00735589,0.03760791,0.00000096,0.0682293
 5,0.00437851,-0.30361715,-0.00000318,-0.01406362,-0.01675413,-0.000000
 63,0.00520196,-0.01747533,-0.00000043,0.00230478,0.33692601,0.00000023
 ,-0.00000051,-0.06350958,-0.00000107,-0.00000197,0.02117380,0.00000076
 ,-0.00000143,0.01079241,-0.00000012,0.00000425,0.02563244,0.00418999,0
 .05739491,0.00000184,0.00251898,-0.00815406,-0.00000036,-0.05320273,-0
 .07304277,-0.00000166,-0.00576827,0.00217838,0.00000021,0.05226203,0.0
 0721653,-0.03028719,-0.00000098,-0.00829607,0.00262057,0.00000026,-0.0
 2397360,-0.47665751,-0.00001508,0.00342959,0.00092057,-0.00000035,0.02
 162355,0.50340354,0.00000028,-0.00000224,0.00472251,-0.00000021,0.0000
 0044,-0.00631277,-0.00000024,-0.00001433,-0.01756507,0.00000019,-0.000
 00001,0.00591093,-0.00000003,0.00001614,0.01324440\\0.00009728,-0.0000
 6462,0.00000686,-0.00009489,0.00000797,-0.00000251,0.00000882,0.000034
 48,-0.00000196,-0.00001789,0.00002784,-0.00000240,0.00000668,-0.000005
 67,0.00000001\\\@


 "WOULD YOU TELL ME PLEASE, WHICH WAY I OUGHT TO WALK FROM HERE?"
 "THAT DEPENDS A GREAT DEAL ON WHERE YOU WANT TO GO," SAID THE CAT.
 "I DON'T MUCH CARE WHERE -- ", SAID ALICE.
 "THEN IT DOESN'T MATTER WHICH WAY YOU WALK," SAID THE CAT.

                                      -- LEWIS CARROLL
 Job cpu time:       0 days  0 hours  0 minutes  0.4 seconds.
 Elapsed time:       0 days  0 hours  0 minutes  6.1 seconds.
 File lengths (MBytes):  RWF=     22 Int=      0 D2E=      0 Chk=      2 Scr=      2
 Normal termination of Gaussian 16 at Mon Nov 25 15:27:15 2024.
