 Entering Gaussian System, Link 0=/mlatom/software/Gaussian/g16-avx2/g16
 Input=gaussian.com
 Output=gaussian.log
 Initial command:
 /mlatom/software/Gaussian/g16-avx2/l1.exe "/mlatom/home/fatemealavi/anharmonic/ANI_1ccx_H2CO_new_model/H2CO_ANI_1ccx_TLOnMP2_SP_energyShifter_FixL3and5/freq_H2CO_by_TL_ani_1ccx/Gau-199265.inp" -scrdir="/mlatom/home/fatemealavi/anharmonic/ANI_1ccx_H2CO_new_model/H2CO_ANI_1ccx_TLOnMP2_SP_energyShifter_FixL3and5/freq_H2CO_by_TL_ani_1ccx/"
 Entering Link 1 = /mlatom/software/Gaussian/g16-avx2/l1.exe PID=    199266.
  
 Copyright (c) 1988,1990,1992,1993,1995,1998,2003,2009,2016,
            Gaussian, Inc.  All Rights Reserved.
  
 This is part of the Gaussian(R) 16 program.  It is based on
 the Gaussian(R) 09 system (copyright 2009, Gaussian, Inc.),
 the Gaussian(R) 03 system (copyright 2003, Gaussian, Inc.),
 the Gaussian(R) 98 system (copyright 1998, Gaussian, Inc.),
 the Gaussian(R) 94 system (copyright 1995, Gaussian, Inc.),
 the Gaussian 92(TM) system (copyright 1992, Gaussian, Inc.),
 the Gaussian 90(TM) system (copyright 1990, Gaussian, Inc.),
 the Gaussian 88(TM) system (copyright 1988, Gaussian, Inc.),
 the Gaussian 86(TM) system (copyright 1986, Carnegie Mellon
 University), and the Gaussian 82(TM) system (copyright 1983,
 Carnegie Mellon University). Gaussian is a federally registered
 trademark of Gaussian, Inc.
  
 This software contains proprietary and confidential information,
 including trade secrets, belonging to Gaussian, Inc.
  
 This software is provided under written license and may be
 used, copied, transmitted, or stored only in accord with that
 written license.
  
 The following legend is applicable only to US Government
 contracts under FAR:
  
                    RESTRICTED RIGHTS LEGEND
  
 Use, reproduction and disclosure by the US Government is
 subject to restrictions as set forth in subparagraphs (a)
 and (c) of the Commercial Computer Software - Restricted
 Rights clause in FAR 52.227-19.
  
 Gaussian, Inc.
 340 Quinnipiac St., Bldg. 40, Wallingford CT 06492
  
  
 ---------------------------------------------------------------
 Warning -- This program may not be used in any manner that
 competes with the business of Gaussian, Inc. or will provide
 assistance to any competitor of Gaussian, Inc.  The licensee
 of this program is prohibited from giving any competitor of
 Gaussian, Inc. access to this program.  By using this program,
 the user acknowledges that Gaussian, Inc. is engaged in the
 business of creating and licensing software in the field of
 computational chemistry and represents and warrants to the
 licensee that it is not a competitor of Gaussian, Inc. and that
 it will not use this program in any manner prohibited above.
 ---------------------------------------------------------------
  

 Cite this work as:
 Gaussian 16, Revision A.03,
 M. J. Frisch, G. W. Trucks, H. B. Schlegel, G. E. Scuseria, 
 M. A. Robb, J. R. Cheeseman, G. Scalmani, V. Barone, 
 G. A. Petersson, H. Nakatsuji, X. Li, M. Caricato, A. V. Marenich, 
 J. Bloino, B. G. Janesko, R. Gomperts, B. Mennucci, H. P. Hratchian, 
 J. V. Ortiz, A. F. Izmaylov, J. L. Sonnenberg, D. Williams-Young, 
 F. Ding, F. Lipparini, F. Egidi, J. Goings, B. Peng, A. Petrone, 
 T. Henderson, D. Ranasinghe, V. G. Zakrzewski, J. Gao, N. Rega, 
 G. Zheng, W. Liang, M. Hada, M. Ehara, K. Toyota, R. Fukuda, 
 J. Hasegawa, M. Ishida, T. Nakajima, Y. Honda, O. Kitao, H. Nakai, 
 T. Vreven, K. Throssell, J. A. Montgomery, Jr., J. E. Peralta, 
 F. Ogliaro, M. J. Bearpark, J. J. Heyd, E. N. Brothers, K. N. Kudin, 
 V. N. Staroverov, T. A. Keith, R. Kobayashi, J. Normand, 
 K. Raghavachari, A. P. Rendell, J. C. Burant, S. S. Iyengar, 
 J. Tomasi, M. Cossi, J. M. Millam, M. Klene, C. Adamo, R. Cammi, 
 J. W. Ochterski, R. L. Martin, K. Morokuma, O. Farkas, 
 J. B. Foresman, and D. J. Fox, Gaussian, Inc., Wallingford CT, 2016.
 
 ******************************************
 Gaussian 16:  ES64L-G16RevA.03 25-Dec-2016
                25-Nov-2024 
 ******************************************
 %nproc=1
 Will use up to    1 processors via shared memory.
 ----------------------------------------------------------------------
 #p freq external='/mlatom/software/miniconda3/bin/python /mlatom/home/
 fatemealavi/mlatom_devBranch/mlatom/interfaces/gaussian_interface.py m
 odel_predict_kwargs'
 ----------------------------------------------------------------------
 1/10=4,18=10,30=1,38=1/1,3;
 2/12=2,17=6,18=5,40=1/2;
 3/11=9,25=1,30=1,41=9900000,43=2,71=2,140=1/1;
 4/20=17,22=2,24=3,113=1,114=1/2;
 6/7=2,8=2,9=2,10=2/1;
 7/8=1,25=1,44=-1/16;
 1/10=4,18=10,30=1/3;
 99//99;
 Leave Link    1 at Mon Nov 25 12:29:35 2024, MaxMem=           0 cpu:               0.0 elap:               0.0
 (Enter /mlatom/software/Gaussian/g16-avx2/l101.exe)
 ------------------------------------
 b63d2ba8-751e-4145-a935-d9f88f92026e
 ------------------------------------
 Symbolic Z-matrix:
 Charge =  0 Multiplicity = 1
 C                    -0.53425   0.        0.00014 
 O                     0.67876  0.        -0.00009 
 H                    -1.11229   0.93609  -0.0001 
 H                    -1.11229  -0.93609  -0.00006 
 
 ITRead=  0  0  0  0
 MicOpt= -1 -1 -1 -1
 NAtoms=      4 NQM=        4 NQMF=       0 NMMI=      0 NMMIF=      0
                NMic=       0 NMicF=      0.
                    Isotopes and Nuclear Properties:
 (Nuclear quadrupole moments (NQMom) in fm**2, nuclear magnetic moments (NMagM)
  in nuclear magnetons)

  Atom         1           2           3           4
 IAtWgt=          12          16           1           1
 AtmWgt=  12.0000000  15.9949146   1.0078250   1.0078250
 NucSpn=           0           0           1           1
 AtZEff=  -0.0000000  -0.0000000  -0.0000000  -0.0000000
 NQMom=    0.0000000   0.0000000   0.0000000   0.0000000
 NMagM=    0.0000000   0.0000000   2.7928460   2.7928460
 AtZNuc=   6.0000000   8.0000000   1.0000000   1.0000000
 Leave Link  101 at Mon Nov 25 12:29:36 2024, MaxMem=   104857600 cpu:               0.1 elap:               0.1
 (Enter /mlatom/software/Gaussian/g16-avx2/l103.exe)

 GradGradGradGradGradGradGradGradGradGradGradGradGradGradGradGradGradGrad
 Berny optimization.
 Initialization pass.
 Trust Radius=3.00D-01 FncErr=1.00D-07 GrdErr=1.00D-07 EigMax=2.50D+02 EigMin=1.00D-04
 Number of steps in this run=      2 maximum allowed number of steps=      2.
 GradGradGradGradGradGradGradGradGradGradGradGradGradGradGradGradGradGrad

 Leave Link  103 at Mon Nov 25 12:29:36 2024, MaxMem=   104857600 cpu:               0.0 elap:               0.0
 (Enter /mlatom/software/Gaussian/g16-avx2/l202.exe)
                          Input orientation:                          
 ---------------------------------------------------------------------
 Center     Atomic      Atomic             Coordinates (Angstroms)
 Number     Number       Type             X           Y           Z
 ---------------------------------------------------------------------
      1          6           0       -0.534246    0.000000    0.000141
      2          8           0        0.678756   -0.000000   -0.000086
      3          1           0       -1.112287    0.936090   -0.000100
      4          1           0       -1.112290   -0.936089   -0.000061
 ---------------------------------------------------------------------
                    Distance matrix (angstroms):
                    1          2          3          4
     1  C    0.000000
     2  O    1.213002   0.000000
     3  H    1.100181   2.020917   0.000000
     4  H    1.100181   2.020918   1.872180   0.000000
 Stoichiometry    CH2O
 Framework group  C1[X(CH2O)]
 Deg. of freedom     6
 Full point group                 C1      NOp   1
 Largest Abelian subgroup         C1      NOp   1
 Largest concise Abelian subgroup C1      NOp   1
                         Standard orientation:                         
 ---------------------------------------------------------------------
 Center     Atomic      Atomic             Coordinates (Angstroms)
 Number     Number       Type             X           Y           Z
 ---------------------------------------------------------------------
      1          6           0        0.534246    0.000000   -0.000141
      2          8           0       -0.678756   -0.000000    0.000086
      3          1           0        1.112287    0.936090    0.000100
      4          1           0        1.112290   -0.936089    0.000061
 ---------------------------------------------------------------------
 Rotational constants (GHZ):         286.1323157          38.5022665          33.9358266
 Leave Link  202 at Mon Nov 25 12:29:36 2024, MaxMem=   104857600 cpu:               0.0 elap:               0.0
 (Enter /mlatom/software/Gaussian/g16-avx2/l301.exe)
 Standard basis: STO-3G (5D, 7F)
 Ernie: Thresh=  0.10000D-02 Tol=  0.10000D-05 Strict=F.
 There are    12 symmetry adapted cartesian basis functions of A   symmetry.
 There are    12 symmetry adapted basis functions of A   symmetry.
    12 basis functions,    36 primitive gaussians,    12 cartesian basis functions
     8 alpha electrons        8 beta electrons
       nuclear repulsion energy        31.1843459613 Hartrees.
 IExCor=    0 DFT=F Ex=HF Corr=None ExCW=0 ScaHFX=  1.000000
 ScaDFX=  1.000000  1.000000  1.000000  1.000000 ScalE2=  1.000000  1.000000
 IRadAn=      5 IRanWt=     -1 IRanGd=            0 ICorTp=0 IEmpDi=  4
 NAtoms=    4 NActive=    4 NUniq=    4 SFac= 1.00D+00 NAtFMM=   60 NAOKFM=F Big=F
 Integral buffers will be    131072 words long.
 Raffenetti 1 integral format.
 Two-electron integral symmetry is turned on.
 Leave Link  301 at Mon Nov 25 12:29:36 2024, MaxMem=   104857600 cpu:               0.0 elap:               0.1
 (Enter /mlatom/software/Gaussian/g16-avx2/l402.exe)
 External calculation of energy, first and second derivatives.
 Running external command "/mlatom/software/miniconda3/bin/python /mlatom/home/fatemealavi/mlatom_devBranch/mlatom/interfaces/gaussian_interface.py model_predict_kwargs R"
         input file       "/mlatom/home/fatemealavi/anharmonic/ANI_1ccx_H2CO_new_model/H2CO_ANI_1ccx_TLOnMP2_SP_energyShifter_FixL3and5/freq_H2CO_by_TL_ani_1ccx/Gau-199266.EIn"
         output file      "/mlatom/home/fatemealavi/anharmonic/ANI_1ccx_H2CO_new_model/H2CO_ANI_1ccx_TLOnMP2_SP_energyShifter_FixL3and5/freq_H2CO_by_TL_ani_1ccx/Gau-199266.EOu"
         message file     "/mlatom/home/fatemealavi/anharmonic/ANI_1ccx_H2CO_new_model/H2CO_ANI_1ccx_TLOnMP2_SP_energyShifter_FixL3and5/freq_H2CO_by_TL_ani_1ccx/Gau-199266.EMs"
         fchk file        "/mlatom/home/fatemealavi/anharmonic/ANI_1ccx_H2CO_new_model/H2CO_ANI_1ccx_TLOnMP2_SP_energyShifter_FixL3and5/freq_H2CO_by_TL_ani_1ccx/Gau-199266.EFC"
         mat. el file     "/mlatom/home/fatemealavi/anharmonic/ANI_1ccx_H2CO_new_model/H2CO_ANI_1ccx_TLOnMP2_SP_energyShifter_FixL3and5/freq_H2CO_by_TL_ani_1ccx/Gau-199266.EUF"
model loaded from /mlatom/home/fatemealavi/anharmonic/ANI_1ccx_H2CO_new_model/H2CO_ANI_1ccx_TLOnMP2_SP_energyShifter_FixL3and5/ani1ccx_gelu_TL_ani1x_gelu_byFateme/cv0.pt
model loaded from /mlatom/home/fatemealavi/anharmonic/ANI_1ccx_H2CO_new_model/H2CO_ANI_1ccx_TLOnMP2_SP_energyShifter_FixL3and5/ani1ccx_gelu_TL_ani1x_gelu_byFateme/cv1.pt
model loaded from /mlatom/home/fatemealavi/anharmonic/ANI_1ccx_H2CO_new_model/H2CO_ANI_1ccx_TLOnMP2_SP_energyShifter_FixL3and5/ani1ccx_gelu_TL_ani1x_gelu_byFateme/cv2.pt
model loaded from /mlatom/home/fatemealavi/anharmonic/ANI_1ccx_H2CO_new_model/H2CO_ANI_1ccx_TLOnMP2_SP_energyShifter_FixL3and5/ani1ccx_gelu_TL_ani1x_gelu_byFateme/cv3.pt
model loaded from /mlatom/home/fatemealavi/anharmonic/ANI_1ccx_H2CO_new_model/H2CO_ANI_1ccx_TLOnMP2_SP_energyShifter_FixL3and5/ani1ccx_gelu_TL_ani1x_gelu_byFateme/cv4.pt
model loaded from /mlatom/home/fatemealavi/anharmonic/ANI_1ccx_H2CO_new_model/H2CO_ANI_1ccx_TLOnMP2_SP_energyShifter_FixL3and5/ani1ccx_gelu_TL_ani1x_gelu_byFateme/cv5.pt
model loaded from /mlatom/home/fatemealavi/anharmonic/ANI_1ccx_H2CO_new_model/H2CO_ANI_1ccx_TLOnMP2_SP_energyShifter_FixL3and5/ani1ccx_gelu_TL_ani1x_gelu_byFateme/cv6.pt
model loaded from /mlatom/home/fatemealavi/anharmonic/ANI_1ccx_H2CO_new_model/H2CO_ANI_1ccx_TLOnMP2_SP_energyShifter_FixL3and5/ani1ccx_gelu_TL_ani1x_gelu_byFateme/cv7.pt
 Recovered energy=-0.597912577100     dipole=      0.000000000000      0.000000000000      0.000000000000
 Energy=   -0.597912577     NIter=   0.
 Dipole moment=       0.000000       0.000000       0.000000
 Leave Link  402 at Mon Nov 25 12:29:40 2024, MaxMem=   104857600 cpu:               0.0 elap:               4.5
 (Enter /mlatom/software/Gaussian/g16-avx2/l601.exe)
 Leave Link  601 at Mon Nov 25 12:29:40 2024, MaxMem=   104857600 cpu:               0.0 elap:               0.1
 (Enter /mlatom/software/Gaussian/g16-avx2/l716.exe)
 Dipole        = 0.00000000D+00 0.00000000D+00 0.00000000D+00
 Full mass-weighted force constant matrix:
 Low frequencies ---   -3.2818   -0.0018   13.6615   17.5059   26.2747   79.2177
 Low frequencies --- 1196.9362 1267.9646 1540.4620
 Diagonal vibrational polarizability:
        0.0000000       0.0000000       0.0000000
 Harmonic frequencies (cm**-1), IR intensities (KM/Mole), Raman scattering
 activities (A**4/AMU), depolarization ratios for plane and unpolarized
 incident light, reduced masses (AMU), force constants (mDyne/A),
 and normal coordinates:
                      1                      2                      3
                      A                      A                      A
 Frequencies --   1196.9362              1267.9619              1540.4620
 Red. masses --      1.3614                 1.3334                 1.1555
 Frc consts  --      1.1492                 1.2630                 1.6156
 IR Inten    --      0.0000                 0.0000                 0.0000
  Atom  AN      X      Y      Z        X      Y      Z        X      Y      Z
     1   6     0.00   0.00  -0.17    -0.00   0.15   0.00     0.03  -0.00  -0.00
     2   8     0.00  -0.00   0.04    -0.00  -0.08  -0.00    -0.10   0.00   0.00
     3   1    -0.00  -0.00   0.70     0.65  -0.25  -0.00     0.62  -0.33   0.00
     4   1    -0.00   0.00   0.70    -0.65  -0.25   0.00     0.62   0.33   0.00
                      4                      5                      6
                      A                      A                      A
 Frequencies --   1752.8668              2973.2033              3047.9017
 Red. masses --      5.7585                 1.0439                 1.1221
 Frc consts  --     10.4245                 5.4368                 6.1419
 IR Inten    --      0.0000                 0.0000                 0.0000
  Atom  AN      X      Y      Z        X      Y      Z        X      Y      Z
     1   6     0.52   0.00  -0.00    -0.06  -0.00  -0.00     0.00  -0.10  -0.00
     2   8    -0.35  -0.00   0.00    -0.00   0.00  -0.00     0.00   0.00   0.00
     3   1    -0.31   0.46  -0.00     0.35   0.62   0.00     0.36   0.60   0.00
     4   1    -0.31  -0.46  -0.00     0.35  -0.62   0.00    -0.36   0.60  -0.00

 -------------------
 - Thermochemistry -
 -------------------
 Temperature   298.150 Kelvin.  Pressure   1.00000 Atm.
 Atom     1 has atomic number  6 and mass  12.00000
 Atom     2 has atomic number  8 and mass  15.99491
 Atom     3 has atomic number  1 and mass   1.00783
 Atom     4 has atomic number  1 and mass   1.00783
 Molecular mass:    30.01056 amu.
 Principal axes and moments of inertia in atomic units:
                           1         2         3
     Eigenvalues --     6.30737  46.87364  53.18100
           X            1.00000  -0.00000   0.00013
           Y            0.00000   1.00000  -0.00002
           Z           -0.00013   0.00002   1.00000
 This molecule is an asymmetric top.
 Rotational symmetry number  1.
 Rotational temperatures (Kelvin)     13.73219     1.84782     1.62866
 Rotational constants (GHZ):         286.13232    38.50227    33.93583
 Zero-point vibrational energy      70456.1 (Joules/Mol)
                                   16.83940 (Kcal/Mol)
 Vibrational temperatures:   1722.12  1824.31  2216.38  2521.98  4277.78
          (Kelvin)           4385.25
 
 Zero-point correction=                           0.026835 (Hartree/Particle)
 Thermal correction to Energy=                    0.029703
 Thermal correction to Enthalpy=                  0.030648
 Thermal correction to Gibbs Free Energy=         0.005170
 Sum of electronic and zero-point Energies=             -0.571077
 Sum of electronic and thermal Energies=                -0.568209
 Sum of electronic and thermal Enthalpies=              -0.567265
 Sum of electronic and thermal Free Energies=           -0.592742
 
                     E (Thermal)             CV                S
                      KCal/Mol        Cal/Mol-Kelvin    Cal/Mol-Kelvin
 Total                   18.639              6.429             53.621
 Electronic               0.000              0.000              0.000
 Translational            0.889              2.981             36.130
 Rotational               0.889              2.981             17.404
 Vibrational             16.862              0.467              0.087
                       Q            Log10(Q)             Ln(Q)
 Total Bot       0.418568D-02         -2.378234         -5.476087
 Total V=0       0.922853D+10          9.965132         22.945565
 Vib (Bot)       0.456340D-12        -12.340712        -28.415539
 Vib (V=0)       0.100613D+01          0.002655          0.006114
 Electronic      0.100000D+01          0.000000          0.000000
 Translational   0.646197D+07          6.810365         15.681445
 Rotational      0.141942D+04          3.152112          7.258007
 ***** Axes restored to original set *****
 -------------------------------------------------------------------
 Center     Atomic                   Forces (Hartrees/Bohr)
 Number     Number              X              Y              Z
 -------------------------------------------------------------------
      1        6           0.000174096    0.000000132   -0.000072268
      2        8          -0.000153994   -0.000000195    0.000023346
      3        1          -0.000010198   -0.000020633    0.000024461
      4        1          -0.000009904    0.000020697    0.000024461
 -------------------------------------------------------------------
 Cartesian Forces:  Max     0.000174096 RMS     0.000071905
 Z-matrix is all fixed cartesians, so copy forces.
 Force constants in Cartesian coordinates: 
                1             2             3             4             5 
      1  0.933968D+00
      2  0.000000D+00  0.612599D+00
      3 -0.402245D-04 -0.914057D-05  0.170886D+00
      4 -0.731505D+00  0.000000D+00  0.903409D-04  0.813568D+00
      5  0.000000D+00 -0.104439D+00  0.101978D-05  0.000000D+00  0.718919D-01
      6  0.109637D-03  0.101976D-05 -0.552034D-01 -0.115417D-03 -0.111991D-05
      7 -0.101231D+00  0.884107D-01 -0.269048D-04 -0.410312D-01  0.362229D-01
      8  0.867660D-01 -0.252248D+00  0.335222D-04  0.132538D-01  0.162737D-01
      9 -0.365182D-04  0.561037D-04 -0.578415D-01  0.122612D-04 -0.589680D-05
     10 -0.101232D+00 -0.884107D-01 -0.232117D-04 -0.410310D-01 -0.362227D-01
     11 -0.867660D-01 -0.252247D+00 -0.254014D-04 -0.132537D-01  0.162737D-01
     12 -0.328939D-04 -0.479829D-04 -0.578414D-01  0.128148D-04  0.599693D-05
                6             7             8             9            10 
      6  0.178619D-01
      7  0.213363D-05  0.133091D+00
      8  0.125722D-05 -0.112327D+00  0.254430D+00
      9  0.186708D-01  0.238095D-04 -0.432876D-04  0.195912D-01
     10  0.364668D-05  0.915962D-02  0.123068D-01  0.000000D+00  0.133103D+00
     11 -0.115708D-05 -0.123069D-01 -0.184558D-01 -0.691937D-05  0.112327D+00
     12  0.186707D-01  0.000000D+00  0.850817D-05  0.195795D-01  0.191174D-04
               11            12 
     11  0.254429D+00
     12  0.334778D-04  0.195912D-01
 Leave Link  716 at Mon Nov 25 12:29:41 2024, MaxMem=   104857600 cpu:               0.0 elap:               0.1
 (Enter /mlatom/software/Gaussian/g16-avx2/l103.exe)

 GradGradGradGradGradGradGradGradGradGradGradGradGradGradGradGradGradGrad
 Berny optimization.
 Search for a local minimum.
 Step number   1 out of a maximum of    2
 All quantities printed in internal units (Hartrees-Bohrs-Radians)
 Second derivative matrix not updated -- analytic derivatives used.
 The second derivative matrix:
                          X1        Y1        Z1        X2        Y2
           X1           0.93397
           Y1          -0.00000   0.61260
           Z1          -0.00004  -0.00001   0.17089
           X2          -0.73151   0.00000   0.00009   0.81357
           Y2           0.00000  -0.10444   0.00000  -0.00000   0.07189
           Z2           0.00011   0.00000  -0.05520  -0.00012  -0.00000
           X3          -0.10123   0.08841  -0.00003  -0.04103   0.03622
           Y3           0.08677  -0.25225   0.00003   0.01325   0.01627
           Z3          -0.00004   0.00006  -0.05784   0.00001  -0.00001
           X4          -0.10123  -0.08841  -0.00002  -0.04103  -0.03622
           Y4          -0.08677  -0.25225  -0.00003  -0.01325   0.01627
           Z4          -0.00003  -0.00005  -0.05784   0.00001   0.00001
                          Z2        X3        Y3        Z3        X4
           Z2           0.01786
           X3           0.00000   0.13309
           Y3           0.00000  -0.11233   0.25443
           Z3           0.01867   0.00002  -0.00004   0.01959
           X4           0.00000   0.00916   0.01231   0.00000   0.13310
           Y4          -0.00000  -0.01231  -0.01846  -0.00001   0.11233
           Z4           0.01867   0.00000   0.00001   0.01958   0.00002
                          Y4        Z4
           Y4           0.25443
           Z4           0.00003   0.01959
 ITU=  0
     Eigenvalues ---    0.12434   0.14488   0.18999   0.37442   0.76649
     Eigenvalues ---    1.61361
 Angle between quadratic step and forces=  53.67 degrees.
 Linear search not attempted -- first point.
 B after Tr=     0.000025   -0.000000   -0.000021
         Rot=    1.000000    0.000000    0.000020    0.000000 Ang=   0.00 deg.
 Variable       Old X    -DE/DX   Delta X   Delta X   Delta X     New X
                                 (Linear)    (Quad)   (Total)
    X1       -1.00958   0.00017   0.00000   0.00015   0.00017  -1.00941
    Y1        0.00000   0.00000   0.00000   0.00000   0.00000   0.00000
    Z1        0.00027  -0.00007   0.00000  -0.00026  -0.00032  -0.00005
    X2        1.28266  -0.00015   0.00000  -0.00006  -0.00004   1.28263
    Y2       -0.00000  -0.00000   0.00000  -0.00000  -0.00000  -0.00000
    Z2       -0.00016   0.00002   0.00000   0.00007   0.00010  -0.00006
    X3       -2.10192  -0.00001   0.00000  -0.00009  -0.00007  -2.10199
    Y3        1.76895  -0.00002   0.00000  -0.00015  -0.00015   1.76880
    Z3       -0.00019   0.00002   0.00000   0.00021   0.00011  -0.00008
    X4       -2.10192  -0.00001   0.00000  -0.00009  -0.00007  -2.10199
    Y4       -1.76895   0.00002   0.00000   0.00015   0.00015  -1.76880
    Z4       -0.00012   0.00002   0.00000   0.00021   0.00011  -0.00001
         Item               Value     Threshold  Converged?
 Maximum Force            0.000174     0.000450     YES
 RMS     Force            0.000072     0.000300     YES
 Maximum Displacement     0.000317     0.001800     YES
 RMS     Displacement     0.000136     0.001200     YES
 Predicted change in Energy=-3.687086D-08
 Optimization completed.
    -- Stationary point found.
 GradGradGradGradGradGradGradGradGradGradGradGradGradGradGradGradGradGrad

 Leave Link  103 at Mon Nov 25 12:29:41 2024, MaxMem=   104857600 cpu:               0.0 elap:               0.1
 (Enter /mlatom/software/Gaussian/g16-avx2/l9999.exe)
 1\1\GINC-B003\Freq\RExternal='/mlatom/software/miniconda3/bin/python /
 mlatom/home/fatemealavi/mlatom\ZDO\C1H2O1\UNKNOWN\25-Nov-2024\0\\#p fr
 eq external='/mlatom/software/miniconda3/bin/python /mlatom/home/fatem
 ealavi/mlatom_devBranch/mlatom/interfaces/gaussian_interface.py model_
 predict_kwargs'\\b63d2ba8-751e-4145-a935-d9f88f92026e\\0,1\C,-0.534245
 6464,0.0000000219,0.0001414933\O,0.6787564086,-0.0000001628,-0.0000859
 863\H,-1.1122874983,0.9360904782,-0.0001000856\H,-1.1122898919,-0.9360
 893074,-0.0000609836\\Version=ES64L-G16RevA.03\HF=-0.5979126\RMSD=0.00
 0e+00\RMSF=7.190e-05\ZeroPoint=0.0268353\Thermal=0.0297034\Dipole=0.,0
 .,0.\PG=C01 [X(C1H2O1)]\NImag=0\\0.93396837,-0.00000020,0.61259925,-0.
 00004022,-0.00000914,0.17088631,-0.73150539,0.00000027,0.00009034,0.81
 356758,0.00000018,-0.10443922,0.00000102,-0.00000035,0.07189187,0.0001
 0964,0.00000102,-0.05520340,-0.00011542,-0.00000112,0.01786190,-0.1012
 3133,0.08841065,-0.00002690,-0.04103119,0.03622286,0.00000213,0.133090
 93,0.08676601,-0.25224760,0.00003352,0.01325377,0.01627366,0.00000126,
 -0.11232663,0.25442970,-0.00003652,0.00005610,-0.05784146,0.00001226,-
 0.00000590,0.01867079,0.00002381,-0.00004329,0.01959117,-0.10123168,-0
 .08841074,-0.00002321,-0.04103105,-0.03622269,0.00000365,0.00915962,0.
 01230683,0.00000045,0.13310312,-0.08676600,-0.25224665,-0.00002540,-0.
 01325370,0.01627369,-0.00000116,-0.01230689,-0.01845578,-0.00000692,0.
 11232658,0.25442874,-0.00003289,-0.00004798,-0.05784145,0.00001281,0.0
 0000600,0.01867071,0.00000096,0.00000851,0.01957950,0.00001912,0.00003
 348,0.01959123\\-0.00017410,-0.00000013,0.00007227,0.00015399,0.000000
 19,-0.00002335,0.00001020,0.00002063,-0.00002446,0.00000990,-0.0000207
 0,-0.00002446\\\@


 THE SCIENTIFIC THEORIST IS NOT TO BE ENVIED. FOR NATURE, OR MORE
 PRECISELY EXPERIMENT, IS AN INEXORABLE AND NOT VERY FRIENDLY JUDGE OF HIS
 WORK.  IT NEVER SAYS "YES" TO A THEORY. IN THE MOST FAVORABLE CASES
 IT SAYS "MAYBE", AND IN THE GREAT MAJORITY OF CASES SIMPLY "NO"...
 PROBABLY EVERY THEORY WILL SOME DAY EXPERIENCE ITS "NO" - MOST
 THEORIES, SOON AFTER CONCEPTION.  -- A.EINSTEIN, NOV 11, 1922.
 Job cpu time:       0 days  0 hours  0 minutes  0.4 seconds.
 Elapsed time:       0 days  0 hours  0 minutes  5.2 seconds.
 File lengths (MBytes):  RWF=     22 Int=      0 D2E=      0 Chk=      2 Scr=      2
 Normal termination of Gaussian 16 at Mon Nov 25 12:29:41 2024.
