 Entering Gaussian System, Link 0=/mlatom/software/Gaussian/g16-avx2/g16
 Input=gaussian.com
 Output=gaussian.log
 Initial command:
 /mlatom/software/Gaussian/g16-avx2/l1.exe "/mlatom/home/fatemealavi/anharmonic/ANI_1ccx_HCOOH_new_model/HCOOH_ANI_1ccx_TLOnMP2_SP_energyShifter_FixL1and7/freq_HCOOH_by_TL_ani_1ccx/Gau-219276.inp" -scrdir="/mlatom/home/fatemealavi/anharmonic/ANI_1ccx_HCOOH_new_model/HCOOH_ANI_1ccx_TLOnMP2_SP_energyShifter_FixL1and7/freq_HCOOH_by_TL_ani_1ccx/"
 Entering Link 1 = /mlatom/software/Gaussian/g16-avx2/l1.exe PID=    219277.
  
 Copyright (c) 1988,1990,1992,1993,1995,1998,2003,2009,2016,
            Gaussian, Inc.  All Rights Reserved.
  
 This is part of the Gaussian(R) 16 program.  It is based on
 the Gaussian(R) 09 system (copyright 2009, Gaussian, Inc.),
 the Gaussian(R) 03 system (copyright 2003, Gaussian, Inc.),
 the Gaussian(R) 98 system (copyright 1998, Gaussian, Inc.),
 the Gaussian(R) 94 system (copyright 1995, Gaussian, Inc.),
 the Gaussian 92(TM) system (copyright 1992, Gaussian, Inc.),
 the Gaussian 90(TM) system (copyright 1990, Gaussian, Inc.),
 the Gaussian 88(TM) system (copyright 1988, Gaussian, Inc.),
 the Gaussian 86(TM) system (copyright 1986, Carnegie Mellon
 University), and the Gaussian 82(TM) system (copyright 1983,
 Carnegie Mellon University). Gaussian is a federally registered
 trademark of Gaussian, Inc.
  
 This software contains proprietary and confidential information,
 including trade secrets, belonging to Gaussian, Inc.
  
 This software is provided under written license and may be
 used, copied, transmitted, or stored only in accord with that
 written license.
  
 The following legend is applicable only to US Government
 contracts under FAR:
  
                    RESTRICTED RIGHTS LEGEND
  
 Use, reproduction and disclosure by the US Government is
 subject to restrictions as set forth in subparagraphs (a)
 and (c) of the Commercial Computer Software - Restricted
 Rights clause in FAR 52.227-19.
  
 Gaussian, Inc.
 340 Quinnipiac St., Bldg. 40, Wallingford CT 06492
  
  
 ---------------------------------------------------------------
 Warning -- This program may not be used in any manner that
 competes with the business of Gaussian, Inc. or will provide
 assistance to any competitor of Gaussian, Inc.  The licensee
 of this program is prohibited from giving any competitor of
 Gaussian, Inc. access to this program.  By using this program,
 the user acknowledges that Gaussian, Inc. is engaged in the
 business of creating and licensing software in the field of
 computational chemistry and represents and warrants to the
 licensee that it is not a competitor of Gaussian, Inc. and that
 it will not use this program in any manner prohibited above.
 ---------------------------------------------------------------
  

 Cite this work as:
 Gaussian 16, Revision A.03,
 M. J. Frisch, G. W. Trucks, H. B. Schlegel, G. E. Scuseria, 
 M. A. Robb, J. R. Cheeseman, G. Scalmani, V. Barone, 
 G. A. Petersson, H. Nakatsuji, X. Li, M. Caricato, A. V. Marenich, 
 J. Bloino, B. G. Janesko, R. Gomperts, B. Mennucci, H. P. Hratchian, 
 J. V. Ortiz, A. F. Izmaylov, J. L. Sonnenberg, D. Williams-Young, 
 F. Ding, F. Lipparini, F. Egidi, J. Goings, B. Peng, A. Petrone, 
 T. Henderson, D. Ranasinghe, V. G. Zakrzewski, J. Gao, N. Rega, 
 G. Zheng, W. Liang, M. Hada, M. Ehara, K. Toyota, R. Fukuda, 
 J. Hasegawa, M. Ishida, T. Nakajima, Y. Honda, O. Kitao, H. Nakai, 
 T. Vreven, K. Throssell, J. A. Montgomery, Jr., J. E. Peralta, 
 F. Ogliaro, M. J. Bearpark, J. J. Heyd, E. N. Brothers, K. N. Kudin, 
 V. N. Staroverov, T. A. Keith, R. Kobayashi, J. Normand, 
 K. Raghavachari, A. P. Rendell, J. C. Burant, S. S. Iyengar, 
 J. Tomasi, M. Cossi, J. M. Millam, M. Klene, C. Adamo, R. Cammi, 
 J. W. Ochterski, R. L. Martin, K. Morokuma, O. Farkas, 
 J. B. Foresman, and D. J. Fox, Gaussian, Inc., Wallingford CT, 2016.
 
 ******************************************
 Gaussian 16:  ES64L-G16RevA.03 25-Dec-2016
                25-Nov-2024 
 ******************************************
 %nproc=1
 Will use up to    1 processors via shared memory.
 ----------------------------------------------------------------------
 #p freq external='/mlatom/software/miniconda3/bin/python /mlatom/home/
 fatemealavi/mlatom_devBranch/mlatom/interfaces/gaussian_interface.py m
 odel_predict_kwargs'
 ----------------------------------------------------------------------
 1/10=4,18=10,30=1,38=1/1,3;
 2/12=2,17=6,18=5,40=1/2;
 3/11=9,25=1,30=1,41=9900000,43=2,71=2,140=1/1;
 4/20=17,22=2,24=3,113=1,114=1/2;
 6/7=2,8=2,9=2,10=2/1;
 7/8=1,25=1,44=-1/16;
 1/10=4,18=10,30=1/3;
 99//99;
 Leave Link    1 at Mon Nov 25 15:52:19 2024, MaxMem=           0 cpu:               0.0 elap:               0.0
 (Enter /mlatom/software/Gaussian/g16-avx2/l101.exe)
 ------------------------------------
 5079a3f5-7031-4461-a308-ec180723cb16
 ------------------------------------
 Symbolic Z-matrix:
 Charge =  0 Multiplicity = 1
 C                    -0.13243   0.40081   0.00003 
 O                    -1.13875  -0.26232  -0.00001 
 O                     1.12074  -0.09242  -0.00001 
 H                    -0.09715   1.49269   0.00003 
 H                     1.03579  -1.05962  -0.00004 
 
 ITRead=  0  0  0  0  0
 MicOpt= -1 -1 -1 -1 -1
 NAtoms=      5 NQM=        5 NQMF=       0 NMMI=      0 NMMIF=      0
                NMic=       0 NMicF=      0.
                    Isotopes and Nuclear Properties:
 (Nuclear quadrupole moments (NQMom) in fm**2, nuclear magnetic moments (NMagM)
  in nuclear magnetons)

  Atom         1           2           3           4           5
 IAtWgt=          12          16          16           1           1
 AtmWgt=  12.0000000  15.9949146  15.9949146   1.0078250   1.0078250
 NucSpn=           0           0           0           1           1
 AtZEff=  -0.0000000  -0.0000000  -0.0000000  -0.0000000  -0.0000000
 NQMom=    0.0000000   0.0000000   0.0000000   0.0000000   0.0000000
 NMagM=    0.0000000   0.0000000   0.0000000   2.7928460   2.7928460
 AtZNuc=   6.0000000   8.0000000   8.0000000   1.0000000   1.0000000
 Leave Link  101 at Mon Nov 25 15:52:19 2024, MaxMem=   104857600 cpu:               0.1 elap:               0.1
 (Enter /mlatom/software/Gaussian/g16-avx2/l103.exe)

 GradGradGradGradGradGradGradGradGradGradGradGradGradGradGradGradGradGrad
 Berny optimization.
 Initialization pass.
 Trust Radius=3.00D-01 FncErr=1.00D-07 GrdErr=1.00D-07 EigMax=2.50D+02 EigMin=1.00D-04
 Number of steps in this run=      2 maximum allowed number of steps=      2.
 GradGradGradGradGradGradGradGradGradGradGradGradGradGradGradGradGradGrad

 Leave Link  103 at Mon Nov 25 15:52:19 2024, MaxMem=   104857600 cpu:               0.0 elap:               0.0
 (Enter /mlatom/software/Gaussian/g16-avx2/l202.exe)
                          Input orientation:                          
 ---------------------------------------------------------------------
 Center     Atomic      Atomic             Coordinates (Angstroms)
 Number     Number       Type             X           Y           Z
 ---------------------------------------------------------------------
      1          6           0       -0.132427    0.400812    0.000029
      2          8           0       -1.138746   -0.262318   -0.000012
      3          8           0        1.120738   -0.092425   -0.000008
      4          1           0       -0.097155    1.492691    0.000031
      5          1           0        1.035786   -1.059623   -0.000041
 ---------------------------------------------------------------------
                    Distance matrix (angstroms):
                    1          2          3          4          5
     1  C    0.000000
     2  O    1.205164   0.000000
     3  O    1.346739   2.265863   0.000000
     4  H    1.092449   2.040826   1.998963   0.000000
     5  H    1.870185   2.316093   0.970922   2.792465   0.000000
 Stoichiometry    CH2O2
 Framework group  C1[X(CH2O2)]
 Deg. of freedom     9
 Full point group                 C1      NOp   1
 Largest Abelian subgroup         C1      NOp   1
 Largest concise Abelian subgroup C1      NOp   1
                         Standard orientation:                         
 ---------------------------------------------------------------------
 Center     Atomic      Atomic             Coordinates (Angstroms)
 Number     Number       Type             X           Y           Z
 ---------------------------------------------------------------------
      1          6           0        0.132427    0.400812   -0.000029
      2          8           0        1.138746   -0.262318    0.000012
      3          8           0       -1.120738   -0.092425    0.000008
      4          1           0        0.097155    1.492691   -0.000031
      5          1           0       -1.035786   -1.059623    0.000041
 ---------------------------------------------------------------------
 Rotational constants (GHZ):          77.7958771          11.9882670          10.3875551
 Leave Link  202 at Mon Nov 25 15:52:19 2024, MaxMem=   104857600 cpu:               0.0 elap:               0.0
 (Enter /mlatom/software/Gaussian/g16-avx2/l301.exe)
 Standard basis: STO-3G (5D, 7F)
 Ernie: Thresh=  0.10000D-02 Tol=  0.10000D-05 Strict=F.
 There are    17 symmetry adapted cartesian basis functions of A   symmetry.
 There are    17 symmetry adapted basis functions of A   symmetry.
    17 basis functions,    51 primitive gaussians,    17 cartesian basis functions
    12 alpha electrons       12 beta electrons
       nuclear repulsion energy        70.0577282787 Hartrees.
 IExCor=    0 DFT=F Ex=HF Corr=None ExCW=0 ScaHFX=  1.000000
 ScaDFX=  1.000000  1.000000  1.000000  1.000000 ScalE2=  1.000000  1.000000
 IRadAn=      5 IRanWt=     -1 IRanGd=            0 ICorTp=0 IEmpDi=  4
 NAtoms=    5 NActive=    5 NUniq=    5 SFac= 1.00D+00 NAtFMM=   60 NAOKFM=F Big=F
 Integral buffers will be    131072 words long.
 Raffenetti 1 integral format.
 Two-electron integral symmetry is turned on.
 Leave Link  301 at Mon Nov 25 15:52:19 2024, MaxMem=   104857600 cpu:               0.0 elap:               0.1
 (Enter /mlatom/software/Gaussian/g16-avx2/l402.exe)
 External calculation of energy, first and second derivatives.
 Running external command "/mlatom/software/miniconda3/bin/python /mlatom/home/fatemealavi/mlatom_devBranch/mlatom/interfaces/gaussian_interface.py model_predict_kwargs R"
         input file       "/mlatom/home/fatemealavi/anharmonic/ANI_1ccx_HCOOH_new_model/HCOOH_ANI_1ccx_TLOnMP2_SP_energyShifter_FixL1and7/freq_HCOOH_by_TL_ani_1ccx/Gau-219277.EIn"
         output file      "/mlatom/home/fatemealavi/anharmonic/ANI_1ccx_HCOOH_new_model/HCOOH_ANI_1ccx_TLOnMP2_SP_energyShifter_FixL1and7/freq_HCOOH_by_TL_ani_1ccx/Gau-219277.EOu"
         message file     "/mlatom/home/fatemealavi/anharmonic/ANI_1ccx_HCOOH_new_model/HCOOH_ANI_1ccx_TLOnMP2_SP_energyShifter_FixL1and7/freq_HCOOH_by_TL_ani_1ccx/Gau-219277.EMs"
         fchk file        "/mlatom/home/fatemealavi/anharmonic/ANI_1ccx_HCOOH_new_model/HCOOH_ANI_1ccx_TLOnMP2_SP_energyShifter_FixL1and7/freq_HCOOH_by_TL_ani_1ccx/Gau-219277.EFC"
         mat. el file     "/mlatom/home/fatemealavi/anharmonic/ANI_1ccx_HCOOH_new_model/HCOOH_ANI_1ccx_TLOnMP2_SP_energyShifter_FixL1and7/freq_HCOOH_by_TL_ani_1ccx/Gau-219277.EUF"
model loaded from /mlatom/home/fatemealavi/anharmonic/ANI_1ccx_HCOOH_new_model/HCOOH_ANI_1ccx_TLOnMP2_SP_energyShifter_FixL1and7/ani1ccx_gelu_TL_MP2_HCOOH_byFateme/cv0.pt
model loaded from /mlatom/home/fatemealavi/anharmonic/ANI_1ccx_HCOOH_new_model/HCOOH_ANI_1ccx_TLOnMP2_SP_energyShifter_FixL1and7/ani1ccx_gelu_TL_MP2_HCOOH_byFateme/cv1.pt
model loaded from /mlatom/home/fatemealavi/anharmonic/ANI_1ccx_HCOOH_new_model/HCOOH_ANI_1ccx_TLOnMP2_SP_energyShifter_FixL1and7/ani1ccx_gelu_TL_MP2_HCOOH_byFateme/cv2.pt
model loaded from /mlatom/home/fatemealavi/anharmonic/ANI_1ccx_HCOOH_new_model/HCOOH_ANI_1ccx_TLOnMP2_SP_energyShifter_FixL1and7/ani1ccx_gelu_TL_MP2_HCOOH_byFateme/cv3.pt
model loaded from /mlatom/home/fatemealavi/anharmonic/ANI_1ccx_HCOOH_new_model/HCOOH_ANI_1ccx_TLOnMP2_SP_energyShifter_FixL1and7/ani1ccx_gelu_TL_MP2_HCOOH_byFateme/cv4.pt
model loaded from /mlatom/home/fatemealavi/anharmonic/ANI_1ccx_HCOOH_new_model/HCOOH_ANI_1ccx_TLOnMP2_SP_energyShifter_FixL1and7/ani1ccx_gelu_TL_MP2_HCOOH_byFateme/cv5.pt
model loaded from /mlatom/home/fatemealavi/anharmonic/ANI_1ccx_HCOOH_new_model/HCOOH_ANI_1ccx_TLOnMP2_SP_energyShifter_FixL1and7/ani1ccx_gelu_TL_MP2_HCOOH_byFateme/cv6.pt
model loaded from /mlatom/home/fatemealavi/anharmonic/ANI_1ccx_HCOOH_new_model/HCOOH_ANI_1ccx_TLOnMP2_SP_energyShifter_FixL1and7/ani1ccx_gelu_TL_MP2_HCOOH_byFateme/cv7.pt
 Recovered energy=-0.808969258887     dipole=      0.000000000000      0.000000000000      0.000000000000
 Energy=   -0.808969259     NIter=   0.
 Dipole moment=       0.000000       0.000000       0.000000
 Leave Link  402 at Mon Nov 25 15:52:23 2024, MaxMem=   104857600 cpu:               0.0 elap:               4.3
 (Enter /mlatom/software/Gaussian/g16-avx2/l601.exe)
 Leave Link  601 at Mon Nov 25 15:52:23 2024, MaxMem=   104857600 cpu:               0.0 elap:               0.0
 (Enter /mlatom/software/Gaussian/g16-avx2/l716.exe)
 Dipole        = 0.00000000D+00 0.00000000D+00 0.00000000D+00
 Full mass-weighted force constant matrix:
 Low frequencies ---   -7.3567   -0.2148   -0.0567    0.2226    7.0903    8.6597
 Low frequencies ---  625.9128  675.1928 1058.4146
 Diagonal vibrational polarizability:
        0.0000000       0.0000000       0.0000000
 Harmonic frequencies (cm**-1), IR intensities (KM/Mole), Raman scattering
 activities (A**4/AMU), depolarization ratios for plane and unpolarized
 incident light, reduced masses (AMU), force constants (mDyne/A),
 and normal coordinates:
                      1                      2                      3
                      A                      A                      A
 Frequencies --    625.9128               675.1928              1058.4146
 Red. masses --      3.4961                 1.2593                 1.5648
 Frc consts  --      0.8070                 0.3383                 1.0328
 IR Inten    --      0.0000                 0.0000                 0.0000
  Atom  AN      X      Y      Z        X      Y      Z        X      Y      Z
     1   6     0.02  -0.23   0.00     0.00  -0.00   0.09     0.00  -0.00  -0.21
     2   8     0.26   0.11  -0.00     0.00   0.00  -0.05     0.00   0.00   0.06
     3   8    -0.21   0.08   0.00    -0.00   0.00  -0.09    -0.00  -0.00   0.03
     4   1    -0.09  -0.23  -0.00    -0.00  -0.00   0.19     0.00   0.00   0.96
     5   1    -0.87   0.03  -0.00    -0.00   0.00   0.97     0.00   0.00   0.14
                      4                      5                      6
                      A                      A                      A
 Frequencies --   1130.9331              1302.3894              1409.9429
 Red. masses --      3.1756                 1.8137                 1.1254
 Frc consts  --      2.3930                 1.8126                 1.3181
 IR Inten    --      0.0000                 0.0000                 0.0000
  Atom  AN      X      Y      Z        X      Y      Z        X      Y      Z
     1   6    -0.16  -0.16   0.00    -0.16  -0.18   0.00    -0.02  -0.02   0.00
     2   8    -0.10   0.06  -0.00     0.03   0.04  -0.00    -0.05   0.06  -0.00
     3   8     0.30   0.08  -0.00     0.01   0.10  -0.00     0.01  -0.04   0.00
     4   1    -0.44  -0.17   0.00     0.25  -0.18   0.00     0.96  -0.01  -0.00
     5   1    -0.79   0.01   0.00     0.90   0.14  -0.00    -0.27  -0.05   0.00
                      7                      8                      9
                      A                      A                      A
 Frequencies --   1793.9965              3124.5747              3741.1382
 Red. masses --      8.1563                 1.0929                 1.0638
 Frc consts  --     15.4663                 6.2864                 8.7720
 IR Inten    --      0.0000                 0.0000                 0.0000
  Atom  AN      X      Y      Z        X      Y      Z        X      Y      Z
     1   6     0.55  -0.32   0.00     0.00  -0.09   0.00    -0.00  -0.00   0.00
     2   8    -0.35   0.24  -0.00    -0.00   0.00  -0.00     0.00  -0.00   0.00
     3   8    -0.06   0.02   0.00    -0.00   0.00  -0.00     0.00  -0.06   0.00
     4   1    -0.32  -0.40   0.00    -0.01   1.00  -0.00    -0.00   0.02   0.00
     5   1     0.38   0.05  -0.00     0.01  -0.02  -0.00    -0.06   1.00  -0.00

 -------------------
 - Thermochemistry -
 -------------------
 Temperature   298.150 Kelvin.  Pressure   1.00000 Atm.
 Atom     1 has atomic number  6 and mass  12.00000
 Atom     2 has atomic number  8 and mass  15.99491
 Atom     3 has atomic number  8 and mass  15.99491
 Atom     4 has atomic number  1 and mass   1.00783
 Atom     5 has atomic number  1 and mass   1.00783
 Molecular mass:    46.00548 amu.
 Principal axes and moments of inertia in atomic units:
                           1         2         3
     Eigenvalues --    23.19842 150.54229 173.74071
           X            0.99941   0.03432   0.00000
           Y           -0.03432   0.99941   0.00005
           Z           -0.00000  -0.00005   1.00000
 This molecule is an asymmetric top.
 Rotational symmetry number  1.
 Rotational temperatures (Kelvin)      3.73361     0.57535     0.49852
 Rotational constants (GHZ):          77.79588    11.98827    10.38756
 Zero-point vibrational energy      88897.5 (Joules/Mol)
                                   21.24700 (Kcal/Mol)
 Vibrational temperatures:    900.55   971.45  1522.82  1627.16  1873.85
          (Kelvin)           2028.59  2581.16  4495.57  5382.66
 
 Zero-point correction=                           0.033859 (Hartree/Particle)
 Thermal correction to Energy=                    0.037032
 Thermal correction to Enthalpy=                  0.037976
 Thermal correction to Gibbs Free Energy=         0.009774
 Sum of electronic and zero-point Energies=             -0.775110
 Sum of electronic and thermal Energies=                -0.771937
 Sum of electronic and thermal Enthalpies=              -0.770993
 Sum of electronic and thermal Free Energies=           -0.799196
 
                     E (Thermal)             CV                S
                      KCal/Mol        Cal/Mol-Kelvin    Cal/Mol-Kelvin
 Total                   23.238              8.664             59.358
 Electronic               0.000              0.000              0.000
 Translational            0.889              2.981             37.404
 Rotational               0.889              2.981             21.034
 Vibrational             21.461              2.702              0.920
                       Q            Log10(Q)             Ln(Q)
 Total Bot       0.319499D-04         -4.495531        -10.351342
 Total V=0       0.119848D+12         11.078632         25.509492
 Vib (Bot)       0.295424D-15        -15.529554        -35.758119
 Vib (V=0)       0.110818D+01          0.044609          0.102715
 Electronic      0.100000D+01          0.000000          0.000000
 Translational   0.122650D+08          7.088668         16.322262
 Rotational      0.881769D+04          3.945355          9.084515
 ***** Axes restored to original set *****
 -------------------------------------------------------------------
 Center     Atomic                   Forces (Hartrees/Bohr)
 Number     Number              X              Y              Z
 -------------------------------------------------------------------
      1        6           0.000160210    0.000060914   -0.000008876
      2        8           0.000013669   -0.000048297    0.000003240
      3        8          -0.000145823   -0.000024251    0.000002508
      4        1          -0.000027525   -0.000001576    0.000003117
      5        1          -0.000000531    0.000013209    0.000000011
 -------------------------------------------------------------------
 Cartesian Forces:  Max     0.000160210 RMS     0.000060437
 Z-matrix is all fixed cartesians, so copy forces.
 Force constants in Cartesian coordinates: 
                1             2             3             4             5 
      1  0.822519D+00
      2  0.195701D+00  0.851394D+00
      3  0.107289D-04  0.201463D-04  0.190920D+00
      4 -0.527429D+00 -0.306632D+00 -0.163000D-04  0.629865D+00
      5 -0.294568D+00 -0.340362D+00 -0.129441D-04  0.345922D+00  0.312118D+00
      6 -0.175721D-04 -0.146742D-04 -0.713774D-01  0.189039D-04  0.144209D-04
      7 -0.251116D+00  0.605634D-01  0.334726D-05 -0.978129D-01 -0.349479D-02
      8  0.894912D-01 -0.169054D+00 -0.424615D-05 -0.169283D-01  0.421706D-01
      9  0.632210D-05 -0.437000D-05 -0.598557D-01 -0.117480D-05  0.000000D+00
     10 -0.475811D-01 -0.590522D-02  0.000000D+00 -0.680002D-02 -0.397660D-01
     11  0.274111D-02 -0.312101D+00 -0.214593D-05 -0.135745D-01 -0.160976D-01
     12  0.000000D+00  0.136716D-05 -0.642774D-01 -0.123899D-05 -0.227371D-05
     13  0.360686D-02  0.562735D-01  0.192113D-05  0.217650D-02 -0.809326D-02
     14  0.663532D-02 -0.298773D-01  0.000000D+00 -0.878723D-02  0.217125D-02
     15  0.000000D+00 -0.246923D-05  0.459081D-02  0.000000D+00  0.000000D+00
                6             7             8             9            10 
      6  0.283305D-01
      7  0.000000D+00  0.409287D+00
      8  0.000000D+00 -0.380761D-01  0.621089D+00
      9  0.281380D-01 -0.444984D-05  0.201440D-04  0.392583D-01
     10 -0.134856D-05 -0.915931D-02  0.384878D-01  0.000000D+00  0.691158D-01
     11  0.000000D+00  0.517927D-02 -0.177675D-01  0.000000D+00  0.353595D-02
     12  0.213393D-01  0.000000D+00 -0.156430D-05  0.105877D-01  0.000000D+00
     13  0.000000D+00 -0.511987D-01 -0.729745D-01 -0.165108D-05 -0.557535D-02
     14  0.000000D+00 -0.241717D-01 -0.476438D+00 -0.158048D-04  0.364755D-02
     15 -0.643030D-02  0.000000D+00 -0.148758D-04 -0.181282D-01  0.000000D+00
               11            12            13            14            15 
     11  0.345002D+00
     12  0.292152D-05  0.261016D-01
     13  0.211812D-02  0.000000D+00  0.509907D-01
     14  0.963931D-03  0.000000D+00  0.226761D-01  0.503180D+00
     15  0.000000D+00  0.624882D-02  0.000000D+00  0.168686D-04  0.137189D-01
 Leave Link  716 at Mon Nov 25 15:52:24 2024, MaxMem=   104857600 cpu:               0.0 elap:               0.1
 (Enter /mlatom/software/Gaussian/g16-avx2/l103.exe)

 GradGradGradGradGradGradGradGradGradGradGradGradGradGradGradGradGradGrad
 Berny optimization.
 Search for a local minimum.
 Step number   1 out of a maximum of    2
 All quantities printed in internal units (Hartrees-Bohrs-Radians)
 Second derivative matrix not updated -- analytic derivatives used.
 The second derivative matrix:
                          X1        Y1        Z1        X2        Y2
           X1           0.82252
           Y1           0.19570   0.85139
           Z1           0.00001   0.00002   0.19092
           X2          -0.52743  -0.30663  -0.00002   0.62987
           Y2          -0.29457  -0.34036  -0.00001   0.34592   0.31212
           Z2          -0.00002  -0.00001  -0.07138   0.00002   0.00001
           X3          -0.25112   0.06056   0.00000  -0.09781  -0.00349
           Y3           0.08949  -0.16905  -0.00000  -0.01693   0.04217
           Z3           0.00001  -0.00000  -0.05986  -0.00000   0.00000
           X4          -0.04758  -0.00591   0.00000  -0.00680  -0.03977
           Y4           0.00274  -0.31210  -0.00000  -0.01357  -0.01610
           Z4           0.00000   0.00000  -0.06428  -0.00000  -0.00000
           X5           0.00361   0.05627   0.00000   0.00218  -0.00809
           Y5           0.00664  -0.02988  -0.00000  -0.00879   0.00217
           Z5           0.00000  -0.00000   0.00459  -0.00000   0.00000
                          Z2        X3        Y3        Z3        X4
           Z2           0.02833
           X3           0.00000   0.40929
           Y3           0.00000  -0.03808   0.62109
           Z3           0.02814  -0.00000   0.00002   0.03926
           X4          -0.00000  -0.00916   0.03849   0.00000   0.06912
           Y4          -0.00000   0.00518  -0.01777  -0.00000   0.00354
           Z4           0.02134   0.00000  -0.00000   0.01059  -0.00000
           X5          -0.00000  -0.05120  -0.07297  -0.00000  -0.00558
           Y5           0.00000  -0.02417  -0.47644  -0.00002   0.00365
           Z5          -0.00643  -0.00000  -0.00001  -0.01813   0.00000
                          Y4        Z4        X5        Y5        Z5
           Y4           0.34500
           Z4           0.00000   0.02610
           X5           0.00212   0.00000   0.05099
           Y5           0.00096  -0.00000   0.02268   0.50318
           Z5           0.00000   0.00625  -0.00000   0.00002   0.01372
 ITU=  0
     Eigenvalues ---    0.03190   0.04426   0.11342   0.23319   0.23340
     Eigenvalues ---    0.52328   0.74671   1.02483   1.70667
 Angle between quadratic step and forces=  60.50 degrees.
 Linear search not attempted -- first point.
 B after Tr=     0.000127   -0.000035   -0.000003
         Rot=    1.000000    0.000002   -0.000001   -0.000010 Ang=   0.00 deg.
 Variable       Old X    -DE/DX   Delta X   Delta X   Delta X     New X
                                 (Linear)    (Quad)   (Total)
    X1       -0.25025   0.00016   0.00000   0.00025   0.00036  -0.24989
    Y1        0.75742   0.00006   0.00000   0.00020   0.00016   0.75758
    Z1        0.00005  -0.00001   0.00000  -0.00003  -0.00004   0.00002
    X2       -2.15192   0.00001   0.00000   0.00038   0.00052  -2.15140
    Y2       -0.49571  -0.00005   0.00000  -0.00017  -0.00025  -0.49596
    Z2       -0.00002   0.00000   0.00000   0.00001   0.00001  -0.00001
    X3        2.11789  -0.00015   0.00000  -0.00024  -0.00011   2.11777
    Y3       -0.17466  -0.00002   0.00000  -0.00007  -0.00006  -0.17472
    Z3       -0.00002   0.00000   0.00000   0.00000  -0.00000  -0.00002
    X4       -0.18360  -0.00003   0.00000  -0.00033  -0.00026  -0.18385
    Y4        2.82078  -0.00000   0.00000   0.00019   0.00015   2.82093
    Z4        0.00006   0.00000   0.00000   0.00003   0.00002   0.00008
    X5        1.95735  -0.00000   0.00000  -0.00068  -0.00051   1.95684
    Y5       -2.00240   0.00001   0.00000  -0.00000   0.00000  -2.00240
    Z5       -0.00008   0.00000   0.00000   0.00001   0.00001  -0.00007
         Item               Value     Threshold  Converged?
 Maximum Force            0.000160     0.000450     YES
 RMS     Force            0.000060     0.000300     YES
 Maximum Displacement     0.000521     0.001800     YES
 RMS     Displacement     0.000239     0.001200     YES
 Predicted change in Energy=-5.615501D-08
 Optimization completed.
    -- Stationary point found.
 GradGradGradGradGradGradGradGradGradGradGradGradGradGradGradGradGradGrad

 Leave Link  103 at Mon Nov 25 15:52:24 2024, MaxMem=   104857600 cpu:               0.0 elap:               0.1
 (Enter /mlatom/software/Gaussian/g16-avx2/l9999.exe)
 1\1\GINC-B003\Freq\RExternal='/mlatom/software/miniconda3/bin/python /
 mlatom/home/fatemealavi/mlatom\ZDO\C1H2O2\UNKNOWN\25-Nov-2024\0\\#p fr
 eq external='/mlatom/software/miniconda3/bin/python /mlatom/home/fatem
 ealavi/mlatom_devBranch/mlatom/interfaces/gaussian_interface.py model_
 predict_kwargs'\\5079a3f5-7031-4461-a308-ec180723cb16\\0,1\C,-0.132427
 2808,0.4008119781,0.000028866\O,-1.138746477,-0.2623177243,-0.00001230
 03\O,1.1207379592,-0.0924247758,-0.0000081341\H,-0.097154604,1.4926910
 02,0.0000309898\H,1.0357864314,-1.0596228704,-0.0000407102\\Version=ES
 64L-G16RevA.03\HF=-0.8089693\RMSD=0.000e+00\RMSF=6.044e-05\ZeroPoint=0
 .0338593\Thermal=0.0370322\Dipole=0.,0.,0.\PG=C01 [X(C1H2O2)]\NImag=0\
 \0.82251889,0.19570076,0.85139447,0.00001073,0.00002015,0.19091976,-0.
 52742893,-0.30663243,-0.00001630,0.62986535,-0.29456833,-0.34036204,-0
 .00001294,0.34592238,0.31211790,-0.00001757,-0.00001467,-0.07137743,0.
 00001890,0.00001442,0.02833045,-0.25111580,0.06056339,0.00000335,-0.09
 781291,-0.00349479,0.00000043,0.40928674,0.08949115,-0.16905399,-0.000
 00425,-0.01692827,0.04217056,0.00000054,-0.03807614,0.62108862,0.00000
 632,-0.00000437,-0.05985571,-0.00000117,0.00000034,0.02813796,-0.00000
 445,0.00002014,0.03925830,-0.04758108,-0.00590522,0.00000030,-0.006800
 02,-0.03976603,-0.00000135,-0.00915931,0.03848775,0.00000095,0.0691157
 7,0.00274111,-0.31210101,-0.00000215,-0.01357446,-0.01609765,-0.000000
 49,0.00517927,-0.01776746,-0.00000031,0.00353595,0.34500223,0.00000023
 ,0.00000137,-0.06427743,-0.00000124,-0.00000227,0.02133933,0.00000091,
 -0.00000156,0.01058768,-0.00000013,0.00000292,0.02610161,0.00360686,0.
 05627354,0.00000192,0.00217650,-0.00809326,-0.00000041,-0.05119874,-0.
 07297450,-0.00000165,-0.00557535,0.00211812,0.00000023,0.05099075,0.00
 663532,-0.02987735,-0.00000081,-0.00878723,0.00217125,0.00000020,-0.02
 417174,-0.47643778,-0.00001580,0.00364755,0.00096393,-0.00000045,0.022
 67610,0.50317991,0.00000029,-0.00000247,0.00459081,-0.00000019,0.00000
 046,-0.00643030,-0.00000023,-0.00001488,-0.01812824,0.00000022,0.00000
 002,0.00624882,-0.00000009,0.00001687,0.01371891\\-0.00016021,-0.00006
 091,0.00000888,-0.00001367,0.00004830,-0.00000324,0.00014582,0.0000242
 5,-0.00000251,0.00002752,0.00000158,-0.00000312,0.00000053,-0.00001321
 ,-0.00000001\\\@


 IF AT FIRST YOU DON'T SUCCEED, TRY, TRY AGAIN.
 THEN GIVE UP;
 THERE'S NO USE BEING A DAMN FOOL ABOUT IT.

                                 -- W. C. FIELDS
 Job cpu time:       0 days  0 hours  0 minutes  0.3 seconds.
 Elapsed time:       0 days  0 hours  0 minutes  4.8 seconds.
 File lengths (MBytes):  RWF=     22 Int=      0 D2E=      0 Chk=      2 Scr=      2
 Normal termination of Gaussian 16 at Mon Nov 25 15:52:24 2024.
