 Entering Gaussian System, Link 0=/mlatom/software/Gaussian/g16-avx2/g16
 Input=gaussian.com
 Output=gaussian.log
 Initial command:
 /mlatom/software/Gaussian/g16-avx2/l1.exe "/mlatom/home/fatemealavi/anharmonic/ANI_1ccx_CH3CONH2_new_model/CH3CONH2_ANI_1ccx_TLOnMP2_SP_energyShifter_FixL1and3/freq_CH3CONH2_by_TL_ani_1ccx/Gau-194199.inp" -scrdir="/mlatom/home/fatemealavi/anharmonic/ANI_1ccx_CH3CONH2_new_model/CH3CONH2_ANI_1ccx_TLOnMP2_SP_energyShifter_FixL1and3/freq_CH3CONH2_by_TL_ani_1ccx/"
 Entering Link 1 = /mlatom/software/Gaussian/g16-avx2/l1.exe PID=    194200.
  
 Copyright (c) 1988,1990,1992,1993,1995,1998,2003,2009,2016,
            Gaussian, Inc.  All Rights Reserved.
  
 This is part of the Gaussian(R) 16 program.  It is based on
 the Gaussian(R) 09 system (copyright 2009, Gaussian, Inc.),
 the Gaussian(R) 03 system (copyright 2003, Gaussian, Inc.),
 the Gaussian(R) 98 system (copyright 1998, Gaussian, Inc.),
 the Gaussian(R) 94 system (copyright 1995, Gaussian, Inc.),
 the Gaussian 92(TM) system (copyright 1992, Gaussian, Inc.),
 the Gaussian 90(TM) system (copyright 1990, Gaussian, Inc.),
 the Gaussian 88(TM) system (copyright 1988, Gaussian, Inc.),
 the Gaussian 86(TM) system (copyright 1986, Carnegie Mellon
 University), and the Gaussian 82(TM) system (copyright 1983,
 Carnegie Mellon University). Gaussian is a federally registered
 trademark of Gaussian, Inc.
  
 This software contains proprietary and confidential information,
 including trade secrets, belonging to Gaussian, Inc.
  
 This software is provided under written license and may be
 used, copied, transmitted, or stored only in accord with that
 written license.
  
 The following legend is applicable only to US Government
 contracts under FAR:
  
                    RESTRICTED RIGHTS LEGEND
  
 Use, reproduction and disclosure by the US Government is
 subject to restrictions as set forth in subparagraphs (a)
 and (c) of the Commercial Computer Software - Restricted
 Rights clause in FAR 52.227-19.
  
 Gaussian, Inc.
 340 Quinnipiac St., Bldg. 40, Wallingford CT 06492
  
  
 ---------------------------------------------------------------
 Warning -- This program may not be used in any manner that
 competes with the business of Gaussian, Inc. or will provide
 assistance to any competitor of Gaussian, Inc.  The licensee
 of this program is prohibited from giving any competitor of
 Gaussian, Inc. access to this program.  By using this program,
 the user acknowledges that Gaussian, Inc. is engaged in the
 business of creating and licensing software in the field of
 computational chemistry and represents and warrants to the
 licensee that it is not a competitor of Gaussian, Inc. and that
 it will not use this program in any manner prohibited above.
 ---------------------------------------------------------------
  

 Cite this work as:
 Gaussian 16, Revision A.03,
 M. J. Frisch, G. W. Trucks, H. B. Schlegel, G. E. Scuseria, 
 M. A. Robb, J. R. Cheeseman, G. Scalmani, V. Barone, 
 G. A. Petersson, H. Nakatsuji, X. Li, M. Caricato, A. V. Marenich, 
 J. Bloino, B. G. Janesko, R. Gomperts, B. Mennucci, H. P. Hratchian, 
 J. V. Ortiz, A. F. Izmaylov, J. L. Sonnenberg, D. Williams-Young, 
 F. Ding, F. Lipparini, F. Egidi, J. Goings, B. Peng, A. Petrone, 
 T. Henderson, D. Ranasinghe, V. G. Zakrzewski, J. Gao, N. Rega, 
 G. Zheng, W. Liang, M. Hada, M. Ehara, K. Toyota, R. Fukuda, 
 J. Hasegawa, M. Ishida, T. Nakajima, Y. Honda, O. Kitao, H. Nakai, 
 T. Vreven, K. Throssell, J. A. Montgomery, Jr., J. E. Peralta, 
 F. Ogliaro, M. J. Bearpark, J. J. Heyd, E. N. Brothers, K. N. Kudin, 
 V. N. Staroverov, T. A. Keith, R. Kobayashi, J. Normand, 
 K. Raghavachari, A. P. Rendell, J. C. Burant, S. S. Iyengar, 
 J. Tomasi, M. Cossi, J. M. Millam, M. Klene, C. Adamo, R. Cammi, 
 J. W. Ochterski, R. L. Martin, K. Morokuma, O. Farkas, 
 J. B. Foresman, and D. J. Fox, Gaussian, Inc., Wallingford CT, 2016.
 
 ******************************************
 Gaussian 16:  ES64L-G16RevA.03 25-Dec-2016
                24-Nov-2024 
 ******************************************
 %nproc=1
 Will use up to    1 processors via shared memory.
 ----------------------------------------------------------------------
 #p freq external='/mlatom/software/miniconda3/bin/python /mlatom/home/
 fatemealavi/mlatom_devBranch/mlatom/interfaces/gaussian_interface.py m
 odel_predict_kwargs'
 ----------------------------------------------------------------------
 1/10=4,18=10,30=1,38=1/1,3;
 2/12=2,17=6,18=5,40=1/2;
 3/11=9,25=1,30=1,41=9900000,43=2,71=2,140=1/1;
 4/20=17,22=2,24=3,113=1,114=1/2;
 6/7=2,8=2,9=2,10=2/1;
 7/8=1,25=1,44=-1/16;
 1/10=4,18=10,30=1/3;
 99//99;
 Leave Link    1 at Sun Nov 24 14:51:29 2024, MaxMem=           0 cpu:               0.0 elap:               0.0
 (Enter /mlatom/software/Gaussian/g16-avx2/l101.exe)
 ------------------------------------
 dde8270d-01bf-495b-916a-68db3e2cc19c
 ------------------------------------
 Symbolic Z-matrix:
 Charge =  0 Multiplicity = 1
 C                     0.07408   0.14599  -0.00847 
 O                     0.37496   1.33063   0.00215 
 C                    -1.3594   -0.3286   -0.00038 
 H                    -1.94559   0.33027  -0.63415 
 H                    -1.74279  -0.24825   1.01617 
 H                    -1.46787  -1.35742  -0.33688 
 N                     1.0165   -0.84114  -0.01459 
 H                     1.98331  -0.57481   0.05699 
 H                     0.76965  -1.81121   0.03586 
 
 ITRead=  0  0  0  0  0  0  0  0  0
 MicOpt= -1 -1 -1 -1 -1 -1 -1 -1 -1
 NAtoms=      9 NQM=        9 NQMF=       0 NMMI=      0 NMMIF=      0
                NMic=       0 NMicF=      0.
                    Isotopes and Nuclear Properties:
 (Nuclear quadrupole moments (NQMom) in fm**2, nuclear magnetic moments (NMagM)
  in nuclear magnetons)

  Atom         1           2           3           4           5           6           7           8           9
 IAtWgt=          12          16          12           1           1           1          14           1           1
 AtmWgt=  12.0000000  15.9949146  12.0000000   1.0078250   1.0078250   1.0078250  14.0030740   1.0078250   1.0078250
 NucSpn=           0           0           0           1           1           1           2           1           1
 AtZEff=  -0.0000000  -0.0000000  -0.0000000  -0.0000000  -0.0000000  -0.0000000  -0.0000000  -0.0000000  -0.0000000
 NQMom=    0.0000000   0.0000000   0.0000000   0.0000000   0.0000000   0.0000000   2.0440000   0.0000000   0.0000000
 NMagM=    0.0000000   0.0000000   0.0000000   2.7928460   2.7928460   2.7928460   0.4037610   2.7928460   2.7928460
 AtZNuc=   6.0000000   8.0000000   6.0000000   1.0000000   1.0000000   1.0000000   7.0000000   1.0000000   1.0000000
 Leave Link  101 at Sun Nov 24 14:51:29 2024, MaxMem=   104857600 cpu:               0.1 elap:               0.1
 (Enter /mlatom/software/Gaussian/g16-avx2/l103.exe)

 GradGradGradGradGradGradGradGradGradGradGradGradGradGradGradGradGradGrad
 Berny optimization.
 Initialization pass.
 Trust Radius=3.00D-01 FncErr=1.00D-07 GrdErr=1.00D-07 EigMax=2.50D+02 EigMin=1.00D-04
 Number of steps in this run=      2 maximum allowed number of steps=      2.
 GradGradGradGradGradGradGradGradGradGradGradGradGradGradGradGradGradGrad

 Leave Link  103 at Sun Nov 24 14:51:29 2024, MaxMem=   104857600 cpu:               0.0 elap:               0.0
 (Enter /mlatom/software/Gaussian/g16-avx2/l202.exe)
                          Input orientation:                          
 ---------------------------------------------------------------------
 Center     Atomic      Atomic             Coordinates (Angstroms)
 Number     Number       Type             X           Y           Z
 ---------------------------------------------------------------------
      1          6           0        0.074083    0.145990   -0.008467
      2          8           0        0.374965    1.330631    0.002152
      3          6           0       -1.359405   -0.328596   -0.000384
      4          1           0       -1.945592    0.330267   -0.634155
      5          1           0       -1.742791   -0.248247    1.016170
      6          1           0       -1.467873   -1.357419   -0.336881
      7          7           0        1.016501   -0.841141   -0.014586
      8          1           0        1.983308   -0.574813    0.056992
      9          1           0        0.769649   -1.811214    0.035865
 ---------------------------------------------------------------------
                    Distance matrix (angstroms):
                    1          2          3          4          5
     1  C    0.000000
     2  O    1.222300   0.000000
     3  C    1.510028   2.400225   0.000000
     4  H    2.122388   2.605878   1.085994   0.000000
     5  H    2.122813   2.829484   1.089414   1.760505   0.000000
     6  H    2.178469   3.276677   1.087876   1.779009   1.771043
     7  N    1.364777   2.264607   2.430604   3.245006   3.004609
     8  H    2.041808   2.494092   3.352259   4.090612   3.861409
     9  H    2.077601   3.166718   2.594676   3.522415   3.117085
                    6          7          8          9
     6  H    0.000000
     7  N    2.557838   0.000000
     8  H    3.560654   1.005370   0.000000
     9  H    2.313304   1.002259   1.732657   0.000000
 Stoichiometry    C2H5NO
 Framework group  C1[X(C2H5NO)]
 Deg. of freedom    21
 Full point group                 C1      NOp   1
 Largest Abelian subgroup         C1      NOp   1
 Largest concise Abelian subgroup C1      NOp   1
                         Standard orientation:                         
 ---------------------------------------------------------------------
 Center     Atomic      Atomic             Coordinates (Angstroms)
 Number     Number       Type             X           Y           Z
 ---------------------------------------------------------------------
      1          6           0        0.074083    0.145990   -0.008467
      2          8           0        0.374965    1.330631    0.002152
      3          6           0       -1.359405   -0.328596   -0.000384
      4          1           0       -1.945592    0.330267   -0.634155
      5          1           0       -1.742791   -0.248247    1.016170
      6          1           0       -1.467873   -1.357419   -0.336881
      7          7           0        1.016501   -0.841141   -0.014586
      8          1           0        1.983308   -0.574813    0.056992
      9          1           0        0.769649   -1.811214    0.035865
 ---------------------------------------------------------------------
 Rotational constants (GHZ):          10.8114008           9.3435541           5.1729030
 Leave Link  202 at Sun Nov 24 14:51:29 2024, MaxMem=   104857600 cpu:               0.0 elap:               0.0
 (Enter /mlatom/software/Gaussian/g16-avx2/l301.exe)
 Standard basis: STO-3G (5D, 7F)
 Ernie: Thresh=  0.10000D-02 Tol=  0.10000D-05 Strict=F.
 There are    25 symmetry adapted cartesian basis functions of A   symmetry.
 There are    25 symmetry adapted basis functions of A   symmetry.
    25 basis functions,    75 primitive gaussians,    25 cartesian basis functions
    16 alpha electrons       16 beta electrons
       nuclear repulsion energy       121.7699240222 Hartrees.
 IExCor=    0 DFT=F Ex=HF Corr=None ExCW=0 ScaHFX=  1.000000
 ScaDFX=  1.000000  1.000000  1.000000  1.000000 ScalE2=  1.000000  1.000000
 IRadAn=      5 IRanWt=     -1 IRanGd=            0 ICorTp=0 IEmpDi=  4
 NAtoms=    9 NActive=    9 NUniq=    9 SFac= 1.00D+00 NAtFMM=   60 NAOKFM=F Big=F
 Integral buffers will be    131072 words long.
 Raffenetti 1 integral format.
 Two-electron integral symmetry is turned on.
 Leave Link  301 at Sun Nov 24 14:51:30 2024, MaxMem=   104857600 cpu:               0.1 elap:               0.1
 (Enter /mlatom/software/Gaussian/g16-avx2/l402.exe)
 External calculation of energy, first and second derivatives.
 Running external command "/mlatom/software/miniconda3/bin/python /mlatom/home/fatemealavi/mlatom_devBranch/mlatom/interfaces/gaussian_interface.py model_predict_kwargs R"
         input file       "/mlatom/home/fatemealavi/anharmonic/ANI_1ccx_CH3CONH2_new_model/CH3CONH2_ANI_1ccx_TLOnMP2_SP_energyShifter_FixL1and3/freq_CH3CONH2_by_TL_ani_1ccx/Gau-194200.EIn"
         output file      "/mlatom/home/fatemealavi/anharmonic/ANI_1ccx_CH3CONH2_new_model/CH3CONH2_ANI_1ccx_TLOnMP2_SP_energyShifter_FixL1and3/freq_CH3CONH2_by_TL_ani_1ccx/Gau-194200.EOu"
         message file     "/mlatom/home/fatemealavi/anharmonic/ANI_1ccx_CH3CONH2_new_model/CH3CONH2_ANI_1ccx_TLOnMP2_SP_energyShifter_FixL1and3/freq_CH3CONH2_by_TL_ani_1ccx/Gau-194200.EMs"
         fchk file        "/mlatom/home/fatemealavi/anharmonic/ANI_1ccx_CH3CONH2_new_model/CH3CONH2_ANI_1ccx_TLOnMP2_SP_energyShifter_FixL1and3/freq_CH3CONH2_by_TL_ani_1ccx/Gau-194200.EFC"
         mat. el file     "/mlatom/home/fatemealavi/anharmonic/ANI_1ccx_CH3CONH2_new_model/CH3CONH2_ANI_1ccx_TLOnMP2_SP_energyShifter_FixL1and3/freq_CH3CONH2_by_TL_ani_1ccx/Gau-194200.EUF"
model loaded from /mlatom/home/fatemealavi/anharmonic/ANI_1ccx_CH3CONH2_new_model/CH3CONH2_ANI_1ccx_TLOnMP2_SP_energyShifter_FixL1and3/ani1ccx_gelu_TL_ani1x_gelu_byFateme/cv0.pt
model loaded from /mlatom/home/fatemealavi/anharmonic/ANI_1ccx_CH3CONH2_new_model/CH3CONH2_ANI_1ccx_TLOnMP2_SP_energyShifter_FixL1and3/ani1ccx_gelu_TL_ani1x_gelu_byFateme/cv1.pt
model loaded from /mlatom/home/fatemealavi/anharmonic/ANI_1ccx_CH3CONH2_new_model/CH3CONH2_ANI_1ccx_TLOnMP2_SP_energyShifter_FixL1and3/ani1ccx_gelu_TL_ani1x_gelu_byFateme/cv2.pt
model loaded from /mlatom/home/fatemealavi/anharmonic/ANI_1ccx_CH3CONH2_new_model/CH3CONH2_ANI_1ccx_TLOnMP2_SP_energyShifter_FixL1and3/ani1ccx_gelu_TL_ani1x_gelu_byFateme/cv3.pt
model loaded from /mlatom/home/fatemealavi/anharmonic/ANI_1ccx_CH3CONH2_new_model/CH3CONH2_ANI_1ccx_TLOnMP2_SP_energyShifter_FixL1and3/ani1ccx_gelu_TL_ani1x_gelu_byFateme/cv4.pt
model loaded from /mlatom/home/fatemealavi/anharmonic/ANI_1ccx_CH3CONH2_new_model/CH3CONH2_ANI_1ccx_TLOnMP2_SP_energyShifter_FixL1and3/ani1ccx_gelu_TL_ani1x_gelu_byFateme/cv5.pt
model loaded from /mlatom/home/fatemealavi/anharmonic/ANI_1ccx_CH3CONH2_new_model/CH3CONH2_ANI_1ccx_TLOnMP2_SP_energyShifter_FixL1and3/ani1ccx_gelu_TL_ani1x_gelu_byFateme/cv6.pt
model loaded from /mlatom/home/fatemealavi/anharmonic/ANI_1ccx_CH3CONH2_new_model/CH3CONH2_ANI_1ccx_TLOnMP2_SP_energyShifter_FixL1and3/ani1ccx_gelu_TL_ani1x_gelu_byFateme/cv7.pt
 Recovered energy= -1.49812246690     dipole=      0.000000000000      0.000000000000      0.000000000000
 Energy=    -1.49812247     NIter=   0.
 Dipole moment=       0.000000       0.000000       0.000000
 Leave Link  402 at Sun Nov 24 14:51:35 2024, MaxMem=   104857600 cpu:               0.0 elap:               5.1
 (Enter /mlatom/software/Gaussian/g16-avx2/l601.exe)
 Leave Link  601 at Sun Nov 24 14:51:35 2024, MaxMem=   104857600 cpu:               0.0 elap:               0.0
 (Enter /mlatom/software/Gaussian/g16-avx2/l716.exe)
 Dipole        = 0.00000000D+00 0.00000000D+00 0.00000000D+00
 Full mass-weighted force constant matrix:
 Low frequencies ---   -1.5711   -1.2626   -1.0130   -0.3642    0.0820    0.2092
 Low frequencies ---   37.4845  122.6229  427.1235
 Diagonal vibrational polarizability:
        0.0000000       0.0000000       0.0000000
 Harmonic frequencies (cm**-1), IR intensities (KM/Mole), Raman scattering
 activities (A**4/AMU), depolarization ratios for plane and unpolarized
 incident light, reduced masses (AMU), force constants (mDyne/A),
 and normal coordinates:
                      1                      2                      3
                      A                      A                      A
 Frequencies --     37.4844               122.6229               427.1235
 Red. masses --      1.0433                 1.2738                 2.3383
 Frc consts  --      0.0009                 0.0113                 0.2513
 IR Inten    --      0.0000                 0.0000                 0.0000
  Atom  AN      X      Y      Z        X      Y      Z        X      Y      Z
     1   6     0.00  -0.01   0.01    -0.00   0.00   0.03    -0.00  -0.14   0.00
     2   8    -0.01  -0.00   0.04    -0.00  -0.00   0.02    -0.09  -0.12  -0.00
     3   6    -0.00   0.00   0.00    -0.00   0.00   0.00    -0.09   0.16  -0.00
     4   1     0.12  -0.31  -0.44     0.03  -0.06  -0.09     0.15   0.43   0.06
     5   1    -0.17   0.55  -0.11    -0.06   0.11  -0.03    -0.05   0.26   0.01
     6   1     0.02  -0.16   0.51     0.02  -0.03   0.09    -0.47   0.21  -0.06
     7   7     0.01   0.00  -0.02     0.01  -0.01  -0.14     0.18   0.03   0.00
     8   1     0.01   0.01  -0.16    -0.04   0.03   0.50     0.10   0.33  -0.01
     9   1     0.02  -0.01  -0.20    -0.02   0.05   0.83     0.47  -0.04   0.01
                      4                      5                      6
                      A                      A                      A
 Frequencies --    527.0876               550.1250               653.3339
 Red. masses --      1.6448                 2.2791                 1.6372
 Frc consts  --      0.2692                 0.4064                 0.4117
 IR Inten    --      0.0000                 0.0000                 0.0000
  Atom  AN      X      Y      Z        X      Y      Z        X      Y      Z
     1   6     0.05  -0.01  -0.15    -0.10   0.00  -0.12     0.00   0.00   0.20
     2   8    -0.11   0.03   0.04     0.18  -0.07   0.03    -0.00   0.00  -0.09
     3   6     0.08   0.04   0.02    -0.13  -0.06   0.02    -0.01   0.00   0.03
     4   1    -0.05   0.04   0.13    -0.35  -0.20   0.08     0.21   0.05  -0.12
     5   1     0.38   0.18   0.12     0.08  -0.04   0.10    -0.35  -0.11  -0.09
     6   1    -0.10   0.01   0.18    -0.05  -0.11   0.15     0.10   0.04  -0.12
     7   7     0.01  -0.06   0.02    -0.00   0.12   0.01     0.01   0.00  -0.07
     8   1     0.01  -0.25   0.70    -0.13   0.43   0.57    -0.02  -0.06   0.61
     9   1    -0.18  -0.03  -0.33     0.26   0.04  -0.28    -0.03  -0.02  -0.58
                      7                      8                      9
                      A                      A                      A
 Frequencies --    857.3488               989.6863              1060.4515
 Red. masses --      3.0573                 1.5021                 1.7330
 Frc consts  --      1.3241                 0.8668                 1.1483
 IR Inten    --      0.0000                 0.0000                 0.0000
  Atom  AN      X      Y      Z        X      Y      Z        X      Y      Z
     1   6    -0.12  -0.07   0.03    -0.04   0.02   0.00    -0.00   0.00   0.19
     2   8    -0.03  -0.14  -0.01    -0.03   0.03   0.00     0.00   0.01  -0.04
     3   6     0.29   0.08  -0.01    -0.02   0.14  -0.00    -0.01  -0.01  -0.17
     4   1     0.32   0.10  -0.01    -0.42  -0.30  -0.07    -0.44  -0.00   0.25
     5   1     0.33   0.09   0.00    -0.02  -0.23   0.03     0.67   0.16   0.10
     6   1     0.39   0.08   0.00     0.63   0.05   0.05    -0.23  -0.14   0.34
     7   7    -0.19   0.09  -0.01     0.04  -0.13  -0.00     0.00  -0.00  -0.02
     8   1    -0.32   0.55   0.02    -0.03   0.15   0.00     0.01  -0.01  -0.04
     9   1     0.20  -0.01  -0.03     0.40  -0.22  -0.01     0.02  -0.01  -0.04
                     10                     11                     12
                      A                      A                      A
 Frequencies --   1116.5467              1352.0782              1411.5214
 Red. masses --      1.7140                 2.1019                 1.5086
 Frc consts  --      1.2590                 2.2640                 1.7709
 IR Inten    --      0.0000                 0.0000                 0.0000
  Atom  AN      X      Y      Z        X      Y      Z        X      Y      Z
     1   6     0.00   0.04  -0.01     0.27  -0.09   0.00    -0.12   0.04  -0.01
     2   8     0.02   0.14   0.00    -0.04   0.00  -0.00     0.01  -0.01   0.00
     3   6     0.02  -0.10   0.01     0.01   0.05  -0.00     0.16   0.01  -0.01
     4   1     0.28   0.20   0.07    -0.40  -0.31  -0.00    -0.42  -0.12   0.37
     5   1    -0.02   0.17  -0.03    -0.33  -0.33  -0.09    -0.56   0.03  -0.27
     6   1    -0.36  -0.04  -0.05    -0.35   0.02   0.13    -0.42   0.04   0.10
     7   7    -0.06  -0.13  -0.00    -0.10   0.03  -0.00     0.04  -0.01   0.00
     8   1    -0.21   0.45   0.04    -0.23   0.47   0.01     0.08  -0.17   0.00
     9   1     0.57  -0.30  -0.02    -0.10   0.05  -0.01     0.05  -0.02   0.01
                     13                     14                     15
                      A                      A                      A
 Frequencies --   1488.7067              1511.3230              1622.1310
 Red. masses --      1.0534                 1.1130                 1.2781
 Frc consts  --      1.3755                 1.4978                 1.9814
 IR Inten    --      0.0000                 0.0000                 0.0000
  Atom  AN      X      Y      Z        X      Y      Z        X      Y      Z
     1   6    -0.03  -0.00  -0.02     0.07  -0.01  -0.01     0.07   0.02  -0.00
     2   8     0.01   0.01   0.00    -0.01  -0.01   0.00    -0.01  -0.03  -0.00
     3   6    -0.00   0.03  -0.04    -0.04  -0.04  -0.03    -0.01  -0.00   0.00
     4   1     0.29   0.30  -0.02    -0.10   0.43   0.51    -0.02  -0.02  -0.02
     5   1    -0.08  -0.59  -0.01    -0.30   0.34  -0.15    -0.00  -0.01   0.01
     6   1    -0.04  -0.20   0.65     0.51  -0.14   0.15    -0.03   0.01  -0.01
     7   7     0.00  -0.00   0.00    -0.02   0.01   0.00    -0.09   0.08  -0.00
     8   1     0.02  -0.05  -0.00    -0.03   0.05   0.01     0.10  -0.64   0.04
     9   1     0.02  -0.01   0.02    -0.02   0.01  -0.01     0.73  -0.13   0.05
                     16                     17                     18
                      A                      A                      A
 Frequencies --   1765.4451              3088.6434              3176.0399
 Red. masses --      8.5022                 1.0358                 1.1011
 Frc consts  --     15.6132                 5.8217                 6.5441
 IR Inten    --      0.0000                 0.0000                 0.0000
  Atom  AN      X      Y      Z        X      Y      Z        X      Y      Z
     1   6     0.15   0.66   0.00    -0.00  -0.00  -0.00     0.00  -0.00  -0.00
     2   8    -0.10  -0.38  -0.00     0.00  -0.00   0.00    -0.00   0.00   0.00
     3   6    -0.03  -0.05  -0.00     0.04   0.02  -0.01     0.01  -0.05  -0.08
     4   1     0.18   0.09  -0.08    -0.24   0.29  -0.28     0.10  -0.12   0.08
     5   1     0.04  -0.09   0.03    -0.22   0.05   0.61    -0.26   0.04   0.68
     6   1    -0.22  -0.04   0.07    -0.05  -0.57  -0.19     0.06   0.62   0.19
     7   7     0.03  -0.11   0.00     0.00  -0.00   0.00    -0.00   0.00   0.00
     8   1    -0.12   0.49  -0.02    -0.00  -0.00  -0.00    -0.00  -0.00  -0.00
     9   1    -0.09  -0.08  -0.03     0.00   0.00  -0.00    -0.00  -0.00  -0.00
                     19                     20                     21
                      A                      A                      A
 Frequencies --   3198.5530              3622.0380              3770.8093
 Red. masses --      1.1021                 1.0458                 1.1049
 Frc consts  --      6.6435                 8.0836                 9.2566
 IR Inten    --      0.0000                 0.0000                 0.0000
  Atom  AN      X      Y      Z        X      Y      Z        X      Y      Z
     1   6     0.00  -0.00   0.00     0.00  -0.00  -0.00    -0.00  -0.00   0.00
     2   8    -0.00   0.00  -0.00    -0.00  -0.00  -0.00     0.00   0.00   0.00
     3   6     0.03  -0.08   0.04     0.00   0.00  -0.00     0.00  -0.00  -0.00
     4   1    -0.47   0.52  -0.51     0.00  -0.00   0.00     0.00  -0.00   0.00
     5   1     0.08  -0.03  -0.18    -0.00  -0.00   0.00     0.00  -0.00   0.00
     6   1     0.04   0.42   0.15     0.00  -0.00  -0.00     0.00   0.00   0.00
     7   7    -0.00   0.00   0.00    -0.04   0.03  -0.01    -0.06  -0.07  -0.00
     8   1     0.00   0.00   0.00     0.76   0.21   0.05     0.58   0.15   0.04
     9   1    -0.00  -0.00   0.00    -0.16  -0.59   0.03     0.20   0.77  -0.04

 -------------------
 - Thermochemistry -
 -------------------
 Temperature   298.150 Kelvin.  Pressure   1.00000 Atm.
 Atom     1 has atomic number  6 and mass  12.00000
 Atom     2 has atomic number  8 and mass  15.99491
 Atom     3 has atomic number  6 and mass  12.00000
 Atom     4 has atomic number  1 and mass   1.00783
 Atom     5 has atomic number  1 and mass   1.00783
 Atom     6 has atomic number  1 and mass   1.00783
 Atom     7 has atomic number  7 and mass  14.00307
 Atom     8 has atomic number  1 and mass   1.00783
 Atom     9 has atomic number  1 and mass   1.00783
 Molecular mass:    59.03711 amu.
 Principal axes and moments of inertia in atomic units:
                           1         2         3
     Eigenvalues --   166.92945 193.15361 348.88364
           X            0.99670  -0.08112   0.00183
           Y            0.08112   0.99670  -0.00254
           Z           -0.00162   0.00268   1.00000
 This molecule is an asymmetric top.
 Rotational symmetry number  1.
 Rotational temperatures (Kelvin)      0.51887     0.44842     0.24826
 Rotational constants (GHZ):          10.81140     9.34355     5.17290
 Zero-point vibrational energy     193490.6 (Joules/Mol)
                                   46.24536 (Kcal/Mol)
 Warning -- explicit consideration of   5 degrees of freedom as
           vibrations may cause significant error
 Vibrational temperatures:     53.93   176.43   614.54   758.36   791.51
          (Kelvin)            940.00  1233.53  1423.94  1525.75  1606.46
                             1945.34  2030.86  2141.92  2174.46  2333.88
                             2540.08  4443.87  4569.61  4602.00  5211.30
                             5425.35
 
 Zero-point correction=                           0.073697 (Hartree/Particle)
 Thermal correction to Energy=                    0.079079
 Thermal correction to Enthalpy=                  0.080023
 Thermal correction to Gibbs Free Energy=         0.045163
 Sum of electronic and zero-point Energies=             -1.424426
 Sum of electronic and thermal Energies=                -1.419044
 Sum of electronic and thermal Enthalpies=              -1.418100
 Sum of electronic and thermal Free Energies=           -1.452959
 
                     E (Thermal)             CV                S
                      KCal/Mol        Cal/Mol-Kelvin    Cal/Mol-Kelvin
 Total                   49.623             16.520             73.368
 Electronic               0.000              0.000              0.000
 Translational            0.889              2.981             38.147
 Rotational               0.889              2.981             23.935
 Vibrational             47.845             10.559             11.286
 Vibration     1          0.594              1.982              5.388
 Vibration     2          0.610              1.930              3.059
 Vibration     3          0.789              1.411              0.868
 Vibration     4          0.882              1.190              0.594
 Vibration     5          0.905              1.139              0.544
                       Q            Log10(Q)             Ln(Q)
 Total Bot       0.168410D-20        -20.773633        -47.833059
 Total V=0       0.133184D+14         13.124453         30.220169
 Vib (Bot)       0.248783D-32        -32.604179        -75.073896
 Vib (Bot)    1  0.552075D+01          0.741998          1.708514
 Vib (Bot)    2  0.166553D+01          0.221552          0.510142
 Vib (Bot)    3  0.408848D+00         -0.388438         -0.894411
 Vib (Bot)    4  0.304242D+00         -0.516781         -1.189932
 Vib (Bot)    5  0.285232D+00         -0.544801         -1.254451
 Vib (V=0)       0.196747D+02          1.293907          2.979331
 Vib (V=0)    1  0.604335D+01          0.781278          1.798958
 Vib (V=0)    2  0.223896D+01          0.350046          0.806012
 Vib (V=0)    3  0.114588D+01          0.059138          0.136170
 Vib (V=0)    4  0.108529D+01          0.035545          0.081846
 Vib (V=0)    5  0.107564D+01          0.031666          0.072913
 Electronic      0.100000D+01          0.000000          0.000000
 Translational   0.178296D+08          7.251142         16.696370
 Rotational      0.379668D+05          4.579404         10.544467
 ***** Axes restored to original set *****
 -------------------------------------------------------------------
 Center     Atomic                   Forces (Hartrees/Bohr)
 Number     Number              X              Y              Z
 -------------------------------------------------------------------
      1        6          -0.000004064   -0.000006609   -0.000000187
      2        8           0.000002065    0.000005373    0.000000044
      3        6          -0.000000794   -0.000000396   -0.000001060
      4        1           0.000000157    0.000000738   -0.000000171
      5        1           0.000000232    0.000000152    0.000000878
      6        1           0.000000400   -0.000000366    0.000000340
      7        7           0.000001223    0.000003801    0.000000169
      8        1           0.000001450   -0.000001208    0.000000142
      9        1          -0.000000668   -0.000001485   -0.000000155
 -------------------------------------------------------------------
 Cartesian Forces:  Max     0.000006609 RMS     0.000002103
 Z-matrix is all fixed cartesians, so copy forces.
 Force constants in Cartesian coordinates: 
                1             2             3             4             5 
      1  0.638662D+00
      2  0.683081D-01  0.933808D+00
      3  0.214544D-02  0.185537D-02  0.222306D+00
      4 -0.153058D+00 -0.143687D+00 -0.195827D-02  0.134208D+00
      5 -0.153813D+00 -0.624292D+00 -0.369243D-02  0.156075D+00  0.744993D+00
      6 -0.266419D-02 -0.451126D-02 -0.784008D-01  0.231091D-02  0.577743D-02
      7 -0.196554D+00 -0.201068D-01  0.785734D-03 -0.753025D-02 -0.205300D-01
      8 -0.299786D-01 -0.884854D-01 -0.627773D-03 -0.447620D-01 -0.266206D-01
      9 -0.347120D-02  0.111734D-03 -0.852757D-01 -0.200354D-02 -0.640267D-03
     10 -0.192750D-01  0.231985D-01 -0.212673D-01  0.408557D-02  0.606127D-03
     11 -0.498213D-02  0.480454D-02 -0.815304D-02 -0.423677D-03  0.206910D-03
     12  0.421898D-02 -0.240049D-04 -0.354655D-03  0.694759D-05 -0.988748D-03
     13 -0.121897D-01  0.314320D-02  0.344716D-01  0.736019D-03  0.279529D-03
     14 -0.204221D-02 -0.184441D-02  0.111809D-01 -0.115005D-02 -0.583557D-03
     15 -0.732685D-03 -0.610719D-04  0.813715D-03  0.624636D-05 -0.140184D-03
     16  0.669488D-02 -0.307696D-01 -0.118302D-01 -0.871716D-02 -0.463429D-02
     17  0.536930D-02 -0.111232D-01 -0.149258D-02 -0.409656D-02  0.121486D-02
     18  0.188737D-02  0.139279D-02 -0.328268D-02  0.121451D-02  0.106662D-02
     19 -0.258414D+00  0.918226D-01  0.416320D-03  0.295913D-01  0.173730D-01
     20  0.105425D+00 -0.215242D+00 -0.142840D-02  0.378782D-01 -0.926341D-01
     21 -0.491855D-02  0.522340D-02 -0.448023D-01 -0.434521D-04 -0.245633D-02
     22 -0.228631D-01 -0.975433D-02 -0.147694D-02  0.383751D-02 -0.329102D-02
     23  0.261703D-01  0.176973D-01  0.182809D-02 -0.483923D-02 -0.740792D-03
     24  0.255245D-02 -0.159068D-02 -0.602887D-03  0.331571D-03  0.103436D-02
     25  0.169959D-01  0.178451D-01 -0.128642D-02 -0.315299D-02  0.793507D-02
     26 -0.144565D-01 -0.153233D-01  0.529821D-03  0.500530D-02 -0.154369D-02
     27  0.982393D-03 -0.239627D-02 -0.104004D-01  0.135077D-03  0.395380D-04
                6             7             8             9            10 
      6  0.340871D-01
      7 -0.103230D-02  0.492926D+00
      8  0.209503D-02 -0.312707D-01  0.602191D+00
      9  0.188446D-01  0.134276D-01  0.959190D-03  0.553056D+00
     10  0.299298D-02 -0.125049D+00  0.906308D-01 -0.921159D-01  0.138587D+00
     11  0.526207D-03  0.929669D-01 -0.153316D+00  0.102245D+00 -0.998147D-01
     12  0.325636D-03 -0.927587D-01  0.100782D+00 -0.142315D+00  0.976162D-01
     13 -0.437962D-02 -0.768397D-01  0.625677D-02  0.944604D-01  0.622553D-02
     14 -0.261145D-02  0.577279D-02 -0.447395D-01 -0.190213D-01 -0.844090D-02
     15  0.620229D-03  0.899394D-01 -0.202100D-01 -0.287560D+00  0.791948D-02
     16  0.164357D-02 -0.532256D-01 -0.210083D-01 -0.977993D-02  0.167759D-02
     17 -0.405690D-03 -0.243686D-01 -0.295613D+00 -0.820621D-01 -0.326090D-02
     18  0.196868D-02 -0.106155D-01 -0.816708D-01 -0.733813D-01  0.336031D-02
     19  0.530720D-03 -0.329475D-01  0.249573D-01  0.105823D-03 -0.577977D-02
     20 -0.102996D-02 -0.426697D-02  0.884245D-02 -0.104503D-02 -0.328746D-02
     21  0.195433D-01 -0.241492D-04 -0.139224D-02  0.115801D-01  0.858568D-03
     22  0.408176D-03 -0.341508D-03  0.436545D-02 -0.115416D-02 -0.801543D-03
     23 -0.278330D-03  0.233531D-02 -0.330399D-02 -0.188993D-03  0.830361D-03
     24 -0.476910D-02  0.114238D-03 -0.864113D-03  0.604081D-02  0.552055D-03
     25  0.189756D-03 -0.438499D-03  0.809202D-03  0.530883D-03  0.329264D-03
     26  0.438021D-03 -0.531854D-03  0.104530D-02 -0.358343D-03 -0.461849D-03
     27  0.778048D-02  0.163598D-03  0.928770D-03 -0.989446D-03  0.835582D-04
               11            12            13            14            15 
     11  0.161693D+00
     12 -0.110945D+00  0.152208D+00
     13 -0.206203D-02 -0.178792D-01  0.843637D-01
     14  0.139713D-02  0.190517D-01 -0.659686D-02  0.463445D-01
     15 -0.301383D-02 -0.170220D-01 -0.991566D-01  0.213705D-01  0.310812D+00
     16  0.162711D-01  0.794461D-02  0.128350D-03  0.119837D-01  0.245666D-02
     17 -0.155802D-01 -0.764225D-02 -0.353606D-03 -0.948049D-03  0.135108D-02
     18  0.183675D-01  0.698022D-02 -0.427857D-02 -0.295012D-01 -0.747959D-02
     19 -0.684645D-03  0.588723D-03 -0.229811D-02  0.892969D-03 -0.649856D-03
     20  0.586856D-04 -0.322283D-03 -0.997511D-03  0.228430D-03  0.765985D-03
     21  0.932008D-03  0.183668D-03 -0.250183D-02  0.146922D-04  0.165445D-03
     22 -0.471462D-03  0.285818D-03 -0.943674D-04 -0.106708D-03  0.293218D-03
     23  0.487888D-03  0.122531D-03  0.273772D-03  0.179682D-04 -0.195877D-04
     24 -0.359251D-04  0.191912D-03 -0.112784D-02  0.208040D-03 -0.110201D-03
     25 -0.799326D-03 -0.233760D-04 -0.317533D-04 -0.312765D-03 -0.759042D-04
     26  0.247252D-03 -0.338418D-04  0.567329D-04  0.127489D-03 -0.429341D-04
     27  0.769405D-04 -0.198348D-03  0.391693D-03 -0.691968D-03 -0.239531D-03
               16            17            18            19            20 
     16  0.546203D-01
     17  0.258339D-01  0.319516D+00
     18  0.908038D-02  0.896784D-01  0.747538D-01
     19  0.266710D-03  0.861679D-03 -0.169769D-03  0.806103D+00
     20  0.200971D-02  0.134823D-02  0.432116D-03  0.656225D-01  0.850202D+00
     21  0.948928D-03  0.814543D-03 -0.114126D-03  0.337382D-01 -0.188325D-01
     22  0.516509D-03  0.231769D-03  0.620683D-04 -0.433834D+00 -0.102201D+00
     23 -0.693825D-04  0.744636D-04  0.102037D-03 -0.100466D+00 -0.102950D+00
     24 -0.704824D-05  0.116055D-03  0.125764D-03 -0.368142D-01 -0.638575D-02
     25 -0.196161D-02 -0.216931D-03 -0.540831D-03 -0.102688D+00 -0.100182D+00
     26  0.383151D-03  0.111096D-02  0.132485D-03 -0.100380D+00 -0.449854D+00
     27 -0.457001D-03 -0.357425D-03  0.429290D-03  0.225401D-02  0.278458D-01
               21            22            23            24            25 
     21  0.167427D-01
     22 -0.297353D-01  0.451773D+00
     23 -0.555162D-02  0.105717D+00  0.880273D-01
     24 -0.639475D-02  0.315158D-01  0.708595D-02  0.111933D-01
     25  0.167766D-02  0.180724D-02 -0.299525D-01  0.288298D-02  0.891405D-01
     26  0.212481D-01  0.551038D-02  0.689529D-03  0.432068D-03  0.104874D+00
     27  0.309600D-02 -0.198574D-03 -0.310008D-02 -0.567480D-02 -0.335476D-02
               26            27 
     26  0.463501D+00
     27 -0.223453D-01  0.619679D-02
 Leave Link  716 at Sun Nov 24 14:51:35 2024, MaxMem=   104857600 cpu:               0.0 elap:               0.1
 (Enter /mlatom/software/Gaussian/g16-avx2/l103.exe)

 GradGradGradGradGradGradGradGradGradGradGradGradGradGradGradGradGradGrad
 Berny optimization.
 Search for a local minimum.
 Step number   1 out of a maximum of    2
 All quantities printed in internal units (Hartrees-Bohrs-Radians)
 Second derivative matrix not updated -- analytic derivatives used.
 ITU=  0
     Eigenvalues ---    0.00006   0.00167   0.01304   0.01568   0.04100
     Eigenvalues ---    0.04230   0.06502   0.07892   0.10363   0.10618
     Eigenvalues ---    0.17360   0.21014   0.27874   0.30679   0.49367
     Eigenvalues ---    0.72551   0.75945   0.82784   1.13141   1.20470
     Eigenvalues ---    1.54786
 Angle between quadratic step and forces=  88.74 degrees.
 Linear search not attempted -- first point.
 B after Tr=    -0.000005    0.000001    0.000115
         Rot=    1.000000   -0.000025    0.000008   -0.000001 Ang=  -0.00 deg.
 Variable       Old X    -DE/DX   Delta X   Delta X   Delta X     New X
                                 (Linear)    (Quad)   (Total)
    X1        0.14000  -0.00000   0.00000  -0.00000  -0.00001   0.13999
    Y1        0.27588  -0.00001   0.00000  -0.00002  -0.00001   0.27587
    Z1       -0.01600  -0.00000   0.00000   0.00008   0.00021  -0.01579
    X2        0.70858   0.00000   0.00000  -0.00002  -0.00003   0.70855
    Y2        2.51453   0.00001   0.00000  -0.00000  -0.00000   2.51453
    Z2        0.00407   0.00000   0.00000   0.00024   0.00049   0.00456
    X3       -2.56890  -0.00000   0.00000  -0.00001  -0.00001  -2.56891
    Y3       -0.62096  -0.00000   0.00000  -0.00001  -0.00001  -0.62097
    Z3       -0.00072  -0.00000   0.00000   0.00001   0.00005  -0.00067
    X4       -3.67664   0.00000   0.00000   0.00018   0.00020  -3.67644
    Y4        0.62411   0.00000   0.00000  -0.00041  -0.00036   0.62375
    Z4       -1.19838  -0.00000   0.00000  -0.00059  -0.00051  -1.19889
    X5       -3.29340   0.00000   0.00000  -0.00026  -0.00030  -3.29370
    Y5       -0.46912   0.00000   0.00000   0.00073   0.00062  -0.46849
    Z5        1.92028   0.00000   0.00000  -0.00015  -0.00011   1.92018
    X6       -2.77388   0.00000   0.00000   0.00004   0.00005  -2.77382
    Y6       -2.56515  -0.00000   0.00000  -0.00023  -0.00021  -2.56536
    Z6       -0.63661   0.00000   0.00000   0.00069   0.00063  -0.63598
    X7        1.92091   0.00000   0.00000   0.00001   0.00001   1.92092
    Y7       -1.58953   0.00000   0.00000   0.00001   0.00002  -1.58951
    Z7       -0.02756   0.00000   0.00000   0.00005   0.00011  -0.02745
    X8        3.74791   0.00000   0.00000   0.00005   0.00004   3.74795
    Y8       -1.08624  -0.00000   0.00000  -0.00002  -0.00001  -1.08625
    Z8        0.10770   0.00000   0.00000  -0.00032  -0.00020   0.10750
    X9        1.45443  -0.00000   0.00000   0.00004   0.00004   1.45447
    Y9       -3.42270  -0.00000   0.00000  -0.00003  -0.00003  -3.42273
    Z9        0.06777  -0.00000   0.00000  -0.00065  -0.00068   0.06709
         Item               Value     Threshold  Converged?
 Maximum Force            0.000007     0.000450     YES
 RMS     Force            0.000002     0.000300     YES
 Maximum Displacement     0.000685     0.001800     YES
 RMS     Displacement     0.000284     0.001200     YES
 Predicted change in Energy=-1.837484D-10
 Optimization completed.
    -- Stationary point found.
 GradGradGradGradGradGradGradGradGradGradGradGradGradGradGradGradGradGrad

 Leave Link  103 at Sun Nov 24 14:51:35 2024, MaxMem=   104857600 cpu:               0.0 elap:               0.1
 (Enter /mlatom/software/Gaussian/g16-avx2/l9999.exe)
 1\1\GINC-B003\Freq\RExternal='/mlatom/software/miniconda3/bin/python /
 mlatom/home/fatemealavi/mlatom\ZDO\C2H5N1O1\UNKNOWN\24-Nov-2024\0\\#p 
 freq external='/mlatom/software/miniconda3/bin/python /mlatom/home/fat
 emealavi/mlatom_devBranch/mlatom/interfaces/gaussian_interface.py mode
 l_predict_kwargs'\\dde8270d-01bf-495b-916a-68db3e2cc19c\\0,1\C,0.07408
 32955,0.1459901583,-0.0084668187\O,0.3749647,1.3306311621,0.0021519023
 \C,-1.359404661,-0.3285961828,-0.0003835162\H,-1.9455923267,0.33026728
 5,-0.6341545595\H,-1.7427908713,-0.2482471167,1.0161703119\H,-1.467873
 1337,-1.3574192364,-0.3368814323\N,1.0165014382,-0.8411409405,-0.01458
 63763\H,1.9833076075,-0.5748131979,0.0569923797\H,0.7696492498,-1.8112
 142999,0.0358647248\\Version=ES64L-G16RevA.03\HF=-1.4981225\RMSD=0.000
 e+00\RMSF=2.103e-06\ZeroPoint=0.0736967\Thermal=0.0790787\Dipole=0.,0.
 ,0.\PG=C01 [X(C2H5N1O1)]\NImag=0\\0.63866162,0.06830814,0.93380827,0.0
 0214544,0.00185537,0.22230567,-0.15305756,-0.14368682,-0.00195827,0.13
 420759,-0.15381317,-0.62429196,-0.00369243,0.15607478,0.74499279,-0.00
 266419,-0.00451126,-0.07840082,0.00231091,0.00577743,0.03408707,-0.196
 55357,-0.02010681,0.00078573,-0.00753025,-0.02053001,-0.00103230,0.492
 92567,-0.02997863,-0.08848542,-0.00062777,-0.04476196,-0.02662055,0.00
 209503,-0.03127068,0.60219061,-0.00347120,0.00011173,-0.08527566,-0.00
 200354,-0.00064027,0.01884455,0.01342761,0.00095919,0.55305588,-0.0192
 7498,0.02319849,-0.02126730,0.00408557,0.00060613,0.00299298,-0.125049
 04,0.09063084,-0.09211590,0.13858739,-0.00498213,0.00480454,-0.0081530
 4,-0.00042368,0.00020691,0.00052621,0.09296688,-0.15331556,0.10224517,
 -0.09981470,0.16169326,0.00421898,-0.00002400,-0.00035465,0.00000695,-
 0.00098875,0.00032564,-0.09275872,0.10078192,-0.14231493,0.09761625,-0
 .11094505,0.15220846,-0.01218968,0.00314320,0.03447162,0.00073602,0.00
 027953,-0.00437962,-0.07683972,0.00625677,0.09446041,0.00622553,-0.002
 06203,-0.01787924,0.08436374,-0.00204221,-0.00184441,0.01118092,-0.001
 15005,-0.00058356,-0.00261145,0.00577279,-0.04473953,-0.01902134,-0.00
 844090,0.00139713,0.01905174,-0.00659686,0.04634453,-0.00073269,-0.000
 06107,0.00081371,0.00000625,-0.00014018,0.00062023,0.08993943,-0.02020
 998,-0.28755993,0.00791948,-0.00301383,-0.01702195,-0.09915660,0.02137
 052,0.31081188,0.00669488,-0.03076962,-0.01183018,-0.00871716,-0.00463
 429,0.00164357,-0.05322558,-0.02100828,-0.00977993,0.00167759,0.016271
 09,0.00794461,0.00012835,0.01198373,0.00245666,0.05462031,0.00536930,-
 0.01112325,-0.00149258,-0.00409656,0.00121486,-0.00040569,-0.02436865,
 -0.29561335,-0.08206215,-0.00326090,-0.01558015,-0.00764225,-0.0003536
 1,-0.00094805,0.00135108,0.02583389,0.31951630,0.00188737,0.00139279,-
 0.00328268,0.00121451,0.00106662,0.00196868,-0.01061546,-0.08167081,-0
 .07338133,0.00336031,0.01836751,0.00698022,-0.00427857,-0.02950116,-0.
 00747959,0.00908038,0.08967840,0.07475377,-0.25841355,0.09182264,0.000
 41632,0.02959128,0.01737296,0.00053072,-0.03294749,0.02495730,0.000105
 82,-0.00577977,-0.00068464,0.00058872,-0.00229811,0.00089297,-0.000649
 86,0.00026671,0.00086168,-0.00016977,0.80610323,0.10542496,-0.21524197
 ,-0.00142840,0.03787819,-0.09263405,-0.00102996,-0.00426697,0.00884245
 ,-0.00104503,-0.00328746,0.00005869,-0.00032228,-0.00099751,0.00022843
 ,0.00076599,0.00200971,0.00134823,0.00043212,0.06562249,0.85020220,-0.
 00491855,0.00522340,-0.04480226,-0.00004345,-0.00245633,0.01954328,-0.
 00002415,-0.00139224,0.01158005,0.00085857,0.00093201,0.00018367,-0.00
 250183,0.00001469,0.00016544,0.00094893,0.00081454,-0.00011413,0.03373
 818,-0.01883250,0.01674270,-0.02286308,-0.00975433,-0.00147694,0.00383
 751,-0.00329102,0.00040818,-0.00034151,0.00436545,-0.00115416,-0.00080
 154,-0.00047146,0.00028582,-0.00009437,-0.00010671,0.00029322,0.000516
 51,0.00023177,0.00006207,-0.43383420,-0.10220099,-0.02973535,0.4517734
 3,0.02617030,0.01769733,0.00182809,-0.00483923,-0.00074079,-0.00027833
 ,0.00233531,-0.00330399,-0.00018899,0.00083036,0.00048789,0.00012253,0
 .00027377,0.00001797,-0.00001959,-0.00006938,0.00007446,0.00010204,-0.
 10046559,-0.10294964,-0.00555162,0.10571693,0.08802725,0.00255245,-0.0
 0159068,-0.00060289,0.00033157,0.00103436,-0.00476910,0.00011424,-0.00
 086411,0.00604081,0.00055206,-0.00003593,0.00019191,-0.00112784,0.0002
 0804,-0.00011020,-0.00000705,0.00011605,0.00012576,-0.03681415,-0.0063
 8575,-0.00639475,0.03151575,0.00708595,0.01119326,0.01699588,0.0178451
 1,-0.00128642,-0.00315299,0.00793507,0.00018976,-0.00043850,0.00080920
 ,0.00053088,0.00032926,-0.00079933,-0.00002338,-0.00003175,-0.00031277
 ,-0.00007590,-0.00196161,-0.00021693,-0.00054083,-0.10268807,-0.100182
 38,0.00167766,0.00180724,-0.02995247,0.00288298,0.08914054,-0.01445654
 ,-0.01532332,0.00052982,0.00500530,-0.00154369,0.00043802,-0.00053185,
 0.00104530,-0.00035834,-0.00046185,0.00024725,-0.00003384,0.00005673,0
 .00012749,-0.00004293,0.00038315,0.00111096,0.00013249,-0.10037980,-0.
 44985434,0.02124805,0.00551038,0.00068953,0.00043207,0.10487450,0.4635
 0080,0.00098239,-0.00239627,-0.01040043,0.00013508,0.00003954,0.007780
 48,0.00016360,0.00092877,-0.00098945,0.00008356,0.00007694,-0.00019835
 ,0.00039169,-0.00069197,-0.00023953,-0.00045700,-0.00035742,0.00042929
 ,0.00225401,0.02784581,0.00309600,-0.00019857,-0.00310008,-0.00567480,
 -0.00335476,-0.02234532,0.00619679\\0.00000406,0.00000661,0.00000019,-
 0.00000207,-0.00000537,-0.00000004,0.00000079,0.00000040,0.00000106,-0
 .00000016,-0.00000074,0.00000017,-0.00000023,-0.00000015,-0.00000088,-
 0.00000040,0.00000037,-0.00000034,-0.00000122,-0.00000380,-0.00000017,
 -0.00000145,0.00000121,-0.00000014,0.00000067,0.00000148,0.00000015\\\
 @


 MATERIAL COPIED FROM ONE SCHOLARLY BOOK WITHOUT CREDIT COMPRISES PLAGIARISM.
 MATERIAL COPIED FROM TWO SCHOLARLY BOOKS COMPRISES AN ESSAY.
 MATERIAL COPIED FROM THREE SCHOLARLY BOOKS COMPRISES A DISSERTATION.
 MATERIAL COPIED FROM FOUR SCHOLARLY BOOKS COMPRISES A FIFTH SCHOLARLY BOOK.

                               -- C&EN, 25 FEB 1980
 Job cpu time:       0 days  0 hours  0 minutes  0.5 seconds.
 Elapsed time:       0 days  0 hours  0 minutes  5.8 seconds.
 File lengths (MBytes):  RWF=     22 Int=      0 D2E=      0 Chk=      2 Scr=      2
 Normal termination of Gaussian 16 at Sun Nov 24 14:51:35 2024.
