 Entering Gaussian System, Link 0=/mlatom/software/Gaussian/g16-avx2/g16
 Input=gaussian.com
 Output=gaussian.log
 Initial command:
 /mlatom/software/Gaussian/g16-avx2/l1.exe "/mlatom/home/fatemealavi/anharmonic/ANI_1ccx_H2CO_new_model/H2CO_ANI_1ccx_TLOnCCSDT_F12_SP_energyShifter_FixL1and7/freq_H2CO_by_TL_ani_1ccx/Gau-198977.inp" -scrdir="/mlatom/home/fatemealavi/anharmonic/ANI_1ccx_H2CO_new_model/H2CO_ANI_1ccx_TLOnCCSDT_F12_SP_energyShifter_FixL1and7/freq_H2CO_by_TL_ani_1ccx/"
 Entering Link 1 = /mlatom/software/Gaussian/g16-avx2/l1.exe PID=    198978.
  
 Copyright (c) 1988,1990,1992,1993,1995,1998,2003,2009,2016,
            Gaussian, Inc.  All Rights Reserved.
  
 This is part of the Gaussian(R) 16 program.  It is based on
 the Gaussian(R) 09 system (copyright 2009, Gaussian, Inc.),
 the Gaussian(R) 03 system (copyright 2003, Gaussian, Inc.),
 the Gaussian(R) 98 system (copyright 1998, Gaussian, Inc.),
 the Gaussian(R) 94 system (copyright 1995, Gaussian, Inc.),
 the Gaussian 92(TM) system (copyright 1992, Gaussian, Inc.),
 the Gaussian 90(TM) system (copyright 1990, Gaussian, Inc.),
 the Gaussian 88(TM) system (copyright 1988, Gaussian, Inc.),
 the Gaussian 86(TM) system (copyright 1986, Carnegie Mellon
 University), and the Gaussian 82(TM) system (copyright 1983,
 Carnegie Mellon University). Gaussian is a federally registered
 trademark of Gaussian, Inc.
  
 This software contains proprietary and confidential information,
 including trade secrets, belonging to Gaussian, Inc.
  
 This software is provided under written license and may be
 used, copied, transmitted, or stored only in accord with that
 written license.
  
 The following legend is applicable only to US Government
 contracts under FAR:
  
                    RESTRICTED RIGHTS LEGEND
  
 Use, reproduction and disclosure by the US Government is
 subject to restrictions as set forth in subparagraphs (a)
 and (c) of the Commercial Computer Software - Restricted
 Rights clause in FAR 52.227-19.
  
 Gaussian, Inc.
 340 Quinnipiac St., Bldg. 40, Wallingford CT 06492
  
  
 ---------------------------------------------------------------
 Warning -- This program may not be used in any manner that
 competes with the business of Gaussian, Inc. or will provide
 assistance to any competitor of Gaussian, Inc.  The licensee
 of this program is prohibited from giving any competitor of
 Gaussian, Inc. access to this program.  By using this program,
 the user acknowledges that Gaussian, Inc. is engaged in the
 business of creating and licensing software in the field of
 computational chemistry and represents and warrants to the
 licensee that it is not a competitor of Gaussian, Inc. and that
 it will not use this program in any manner prohibited above.
 ---------------------------------------------------------------
  

 Cite this work as:
 Gaussian 16, Revision A.03,
 M. J. Frisch, G. W. Trucks, H. B. Schlegel, G. E. Scuseria, 
 M. A. Robb, J. R. Cheeseman, G. Scalmani, V. Barone, 
 G. A. Petersson, H. Nakatsuji, X. Li, M. Caricato, A. V. Marenich, 
 J. Bloino, B. G. Janesko, R. Gomperts, B. Mennucci, H. P. Hratchian, 
 J. V. Ortiz, A. F. Izmaylov, J. L. Sonnenberg, D. Williams-Young, 
 F. Ding, F. Lipparini, F. Egidi, J. Goings, B. Peng, A. Petrone, 
 T. Henderson, D. Ranasinghe, V. G. Zakrzewski, J. Gao, N. Rega, 
 G. Zheng, W. Liang, M. Hada, M. Ehara, K. Toyota, R. Fukuda, 
 J. Hasegawa, M. Ishida, T. Nakajima, Y. Honda, O. Kitao, H. Nakai, 
 T. Vreven, K. Throssell, J. A. Montgomery, Jr., J. E. Peralta, 
 F. Ogliaro, M. J. Bearpark, J. J. Heyd, E. N. Brothers, K. N. Kudin, 
 V. N. Staroverov, T. A. Keith, R. Kobayashi, J. Normand, 
 K. Raghavachari, A. P. Rendell, J. C. Burant, S. S. Iyengar, 
 J. Tomasi, M. Cossi, J. M. Millam, M. Klene, C. Adamo, R. Cammi, 
 J. W. Ochterski, R. L. Martin, K. Morokuma, O. Farkas, 
 J. B. Foresman, and D. J. Fox, Gaussian, Inc., Wallingford CT, 2016.
 
 ******************************************
 Gaussian 16:  ES64L-G16RevA.03 25-Dec-2016
                25-Nov-2024 
 ******************************************
 %nproc=1
 Will use up to    1 processors via shared memory.
 ----------------------------------------------------------------------
 #p freq external='/mlatom/software/miniconda3/bin/python /mlatom/home/
 fatemealavi/mlatom_devBranch/mlatom/interfaces/gaussian_interface.py m
 odel_predict_kwargs'
 ----------------------------------------------------------------------
 1/10=4,18=10,30=1,38=1/1,3;
 2/12=2,17=6,18=5,40=1/2;
 3/11=9,25=1,30=1,41=9900000,43=2,71=2,140=1/1;
 4/20=17,22=2,24=3,113=1,114=1/2;
 6/7=2,8=2,9=2,10=2/1;
 7/8=1,25=1,44=-1/16;
 1/10=4,18=10,30=1/3;
 99//99;
 Leave Link    1 at Mon Nov 25 12:08:44 2024, MaxMem=           0 cpu:               0.0 elap:               0.0
 (Enter /mlatom/software/Gaussian/g16-avx2/l101.exe)
 ------------------------------------
 bb1ff8ff-8764-429c-a4d9-a52b59034cbe
 ------------------------------------
 Symbolic Z-matrix:
 Charge =  0 Multiplicity = 1
 C                    -0.53116   0.        0.0001 
 O                     0.67577  0.        -0.00006 
 H                    -1.1096    0.93823  -0.00007 
 H                    -1.1096   -0.93823  -0.00003 
 
 ITRead=  0  0  0  0
 MicOpt= -1 -1 -1 -1
 NAtoms=      4 NQM=        4 NQMF=       0 NMMI=      0 NMMIF=      0
                NMic=       0 NMicF=      0.
                    Isotopes and Nuclear Properties:
 (Nuclear quadrupole moments (NQMom) in fm**2, nuclear magnetic moments (NMagM)
  in nuclear magnetons)

  Atom         1           2           3           4
 IAtWgt=          12          16           1           1
 AtmWgt=  12.0000000  15.9949146   1.0078250   1.0078250
 NucSpn=           0           0           1           1
 AtZEff=  -0.0000000  -0.0000000  -0.0000000  -0.0000000
 NQMom=    0.0000000   0.0000000   0.0000000   0.0000000
 NMagM=    0.0000000   0.0000000   2.7928460   2.7928460
 AtZNuc=   6.0000000   8.0000000   1.0000000   1.0000000
 Leave Link  101 at Mon Nov 25 12:08:44 2024, MaxMem=   104857600 cpu:               0.1 elap:               0.1
 (Enter /mlatom/software/Gaussian/g16-avx2/l103.exe)

 GradGradGradGradGradGradGradGradGradGradGradGradGradGradGradGradGradGrad
 Berny optimization.
 Initialization pass.
 Trust Radius=3.00D-01 FncErr=1.00D-07 GrdErr=1.00D-07 EigMax=2.50D+02 EigMin=1.00D-04
 Number of steps in this run=      2 maximum allowed number of steps=      2.
 GradGradGradGradGradGradGradGradGradGradGradGradGradGradGradGradGradGrad

 Leave Link  103 at Mon Nov 25 12:08:44 2024, MaxMem=   104857600 cpu:               0.0 elap:               0.0
 (Enter /mlatom/software/Gaussian/g16-avx2/l202.exe)
                          Input orientation:                          
 ---------------------------------------------------------------------
 Center     Atomic      Atomic             Coordinates (Angstroms)
 Number     Number       Type             X           Y           Z
 ---------------------------------------------------------------------
      1          6           0       -0.531157    0.000000    0.000099
      2          8           0        0.675767   -0.000000   -0.000063
      3          1           0       -1.109595    0.938234   -0.000066
      4          1           0       -1.109598   -0.938232   -0.000027
 ---------------------------------------------------------------------
                    Distance matrix (angstroms):
                    1          2          3          4
     1  C    0.000000
     2  O    1.206925   0.000000
     3  H    1.102213   2.016879   0.000000
     4  H    1.102213   2.016881   1.876466   0.000000
 Stoichiometry    CH2O
 Framework group  C1[X(CH2O)]
 Deg. of freedom     6
 Full point group                 C1      NOp   1
 Largest Abelian subgroup         C1      NOp   1
 Largest concise Abelian subgroup C1      NOp   1
                         Standard orientation:                         
 ---------------------------------------------------------------------
 Center     Atomic      Atomic             Coordinates (Angstroms)
 Number     Number       Type             X           Y           Z
 ---------------------------------------------------------------------
      1          6           0        0.531157    0.000000   -0.000099
      2          8           0       -0.675767   -0.000000    0.000063
      3          1           0        1.109595    0.938234    0.000066
      4          1           0        1.109598   -0.938232    0.000027
 ---------------------------------------------------------------------
 Rotational constants (GHZ):         284.8266530          38.8441338          34.1824013
 Leave Link  202 at Mon Nov 25 12:08:44 2024, MaxMem=   104857600 cpu:               0.0 elap:               0.0
 (Enter /mlatom/software/Gaussian/g16-avx2/l301.exe)
 Standard basis: STO-3G (5D, 7F)
 Ernie: Thresh=  0.10000D-02 Tol=  0.10000D-05 Strict=F.
 There are    12 symmetry adapted cartesian basis functions of A   symmetry.
 There are    12 symmetry adapted basis functions of A   symmetry.
    12 basis functions,    36 primitive gaussians,    12 cartesian basis functions
     8 alpha electrons        8 beta electrons
       nuclear repulsion energy        31.2868916233 Hartrees.
 IExCor=    0 DFT=F Ex=HF Corr=None ExCW=0 ScaHFX=  1.000000
 ScaDFX=  1.000000  1.000000  1.000000  1.000000 ScalE2=  1.000000  1.000000
 IRadAn=      5 IRanWt=     -1 IRanGd=            0 ICorTp=0 IEmpDi=  4
 NAtoms=    4 NActive=    4 NUniq=    4 SFac= 1.00D+00 NAtFMM=   60 NAOKFM=F Big=F
 Integral buffers will be    131072 words long.
 Raffenetti 1 integral format.
 Two-electron integral symmetry is turned on.
 Leave Link  301 at Mon Nov 25 12:08:44 2024, MaxMem=   104857600 cpu:               0.0 elap:               0.1
 (Enter /mlatom/software/Gaussian/g16-avx2/l402.exe)
 External calculation of energy, first and second derivatives.
 Running external command "/mlatom/software/miniconda3/bin/python /mlatom/home/fatemealavi/mlatom_devBranch/mlatom/interfaces/gaussian_interface.py model_predict_kwargs R"
         input file       "/mlatom/home/fatemealavi/anharmonic/ANI_1ccx_H2CO_new_model/H2CO_ANI_1ccx_TLOnCCSDT_F12_SP_energyShifter_FixL1and7/freq_H2CO_by_TL_ani_1ccx/Gau-198978.EIn"
         output file      "/mlatom/home/fatemealavi/anharmonic/ANI_1ccx_H2CO_new_model/H2CO_ANI_1ccx_TLOnCCSDT_F12_SP_energyShifter_FixL1and7/freq_H2CO_by_TL_ani_1ccx/Gau-198978.EOu"
         message file     "/mlatom/home/fatemealavi/anharmonic/ANI_1ccx_H2CO_new_model/H2CO_ANI_1ccx_TLOnCCSDT_F12_SP_energyShifter_FixL1and7/freq_H2CO_by_TL_ani_1ccx/Gau-198978.EMs"
         fchk file        "/mlatom/home/fatemealavi/anharmonic/ANI_1ccx_H2CO_new_model/H2CO_ANI_1ccx_TLOnCCSDT_F12_SP_energyShifter_FixL1and7/freq_H2CO_by_TL_ani_1ccx/Gau-198978.EFC"
         mat. el file     "/mlatom/home/fatemealavi/anharmonic/ANI_1ccx_H2CO_new_model/H2CO_ANI_1ccx_TLOnCCSDT_F12_SP_energyShifter_FixL1and7/freq_H2CO_by_TL_ani_1ccx/Gau-198978.EUF"
model loaded from /mlatom/home/fatemealavi/anharmonic/ANI_1ccx_H2CO_new_model/H2CO_ANI_1ccx_TLOnCCSDT_F12_SP_energyShifter_FixL1and7/ani1ccx_gelu_TL_ani1x_gelu_byFateme/cv0.pt
model loaded from /mlatom/home/fatemealavi/anharmonic/ANI_1ccx_H2CO_new_model/H2CO_ANI_1ccx_TLOnCCSDT_F12_SP_energyShifter_FixL1and7/ani1ccx_gelu_TL_ani1x_gelu_byFateme/cv1.pt
model loaded from /mlatom/home/fatemealavi/anharmonic/ANI_1ccx_H2CO_new_model/H2CO_ANI_1ccx_TLOnCCSDT_F12_SP_energyShifter_FixL1and7/ani1ccx_gelu_TL_ani1x_gelu_byFateme/cv2.pt
model loaded from /mlatom/home/fatemealavi/anharmonic/ANI_1ccx_H2CO_new_model/H2CO_ANI_1ccx_TLOnCCSDT_F12_SP_energyShifter_FixL1and7/ani1ccx_gelu_TL_ani1x_gelu_byFateme/cv3.pt
model loaded from /mlatom/home/fatemealavi/anharmonic/ANI_1ccx_H2CO_new_model/H2CO_ANI_1ccx_TLOnCCSDT_F12_SP_energyShifter_FixL1and7/ani1ccx_gelu_TL_ani1x_gelu_byFateme/cv4.pt
model loaded from /mlatom/home/fatemealavi/anharmonic/ANI_1ccx_H2CO_new_model/H2CO_ANI_1ccx_TLOnCCSDT_F12_SP_energyShifter_FixL1and7/ani1ccx_gelu_TL_ani1x_gelu_byFateme/cv5.pt
model loaded from /mlatom/home/fatemealavi/anharmonic/ANI_1ccx_H2CO_new_model/H2CO_ANI_1ccx_TLOnCCSDT_F12_SP_energyShifter_FixL1and7/ani1ccx_gelu_TL_ani1x_gelu_byFateme/cv6.pt
model loaded from /mlatom/home/fatemealavi/anharmonic/ANI_1ccx_H2CO_new_model/H2CO_ANI_1ccx_TLOnCCSDT_F12_SP_energyShifter_FixL1and7/ani1ccx_gelu_TL_ani1x_gelu_byFateme/cv7.pt
 Recovered energy=-0.591175349909     dipole=      0.000000000000      0.000000000000      0.000000000000
 Energy=   -0.591175350     NIter=   0.
 Dipole moment=       0.000000       0.000000       0.000000
 Leave Link  402 at Mon Nov 25 12:08:49 2024, MaxMem=   104857600 cpu:               0.0 elap:               4.5
 (Enter /mlatom/software/Gaussian/g16-avx2/l601.exe)
 Leave Link  601 at Mon Nov 25 12:08:49 2024, MaxMem=   104857600 cpu:               0.0 elap:               0.0
 (Enter /mlatom/software/Gaussian/g16-avx2/l716.exe)
 Dipole        = 0.00000000D+00 0.00000000D+00 0.00000000D+00
 Full mass-weighted force constant matrix:
 Low frequencies ---  -63.9434  -26.5665   -4.0823   -3.7984   -0.0574    6.4098
 Low frequencies --- 1186.5176 1267.3892 1533.0101
 Diagonal vibrational polarizability:
        0.0000000       0.0000000       0.0000000
 Harmonic frequencies (cm**-1), IR intensities (KM/Mole), Raman scattering
 activities (A**4/AMU), depolarization ratios for plane and unpolarized
 incident light, reduced masses (AMU), force constants (mDyne/A),
 and normal coordinates:
                      1                      2                      3
                      A                      A                      A
 Frequencies --   1186.5176              1267.3879              1533.0101
 Red. masses --      1.3629                 1.3372                 1.1302
 Frc consts  --      1.1305                 1.2655                 1.5650
 IR Inten    --      0.0000                 0.0000                 0.0000
  Atom  AN      X      Y      Z        X      Y      Z        X      Y      Z
     1   6     0.00   0.00  -0.17    -0.00   0.15   0.00     0.02  -0.00  -0.00
     2   8     0.00  -0.00   0.04    -0.00  -0.08  -0.00    -0.09   0.00   0.00
     3   1    -0.00  -0.00   0.70     0.65  -0.25  -0.00     0.62  -0.34   0.00
     4   1    -0.00   0.00   0.70    -0.65  -0.25   0.00     0.62   0.34   0.00
                      4                      5                      6
                      A                      A                      A
 Frequencies --   1776.4628              2934.5352              3006.2785
 Red. masses --      6.4839                 1.0438                 1.1216
 Frc consts  --     12.0559                 5.2960                 5.9724
 IR Inten    --      0.0000                 0.0000                 0.0000
  Atom  AN      X      Y      Z        X      Y      Z        X      Y      Z
     1   6     0.55   0.00  -0.00    -0.06  -0.00  -0.00     0.00  -0.10  -0.00
     2   8    -0.38  -0.00   0.00    -0.00   0.00  -0.00     0.00   0.00   0.00
     3   1    -0.27   0.45  -0.00     0.35   0.61   0.00     0.37   0.60   0.00
     4   1    -0.27  -0.45  -0.00     0.35  -0.61   0.00    -0.37   0.60  -0.00

 -------------------
 - Thermochemistry -
 -------------------
 Temperature   298.150 Kelvin.  Pressure   1.00000 Atm.
 Atom     1 has atomic number  6 and mass  12.00000
 Atom     2 has atomic number  8 and mass  15.99491
 Atom     3 has atomic number  1 and mass   1.00783
 Atom     4 has atomic number  1 and mass   1.00783
 Molecular mass:    30.01056 amu.
 Principal axes and moments of inertia in atomic units:
                           1         2         3
     Eigenvalues --     6.33628  46.46110  52.79738
           X            1.00000  -0.00000   0.00009
           Y            0.00000   1.00000  -0.00002
           Z           -0.00009   0.00002   1.00000
 This molecule is an asymmetric top.
 Rotational symmetry number  1.
 Rotational temperatures (Kelvin)     13.66952     1.86422     1.64050
 Rotational constants (GHZ):         284.82665    38.84413    34.18240
 Zero-point vibrational energy      70006.6 (Joules/Mol)
                                   16.73198 (Kcal/Mol)
 Vibrational temperatures:   1707.13  1823.49  2205.66  2555.93  4222.14
          (Kelvin)           4325.36
 
 Zero-point correction=                           0.026664 (Hartree/Particle)
 Thermal correction to Energy=                    0.029533
 Thermal correction to Enthalpy=                  0.030477
 Thermal correction to Gibbs Free Energy=         0.005005
 Sum of electronic and zero-point Energies=             -0.564511
 Sum of electronic and thermal Energies=                -0.561642
 Sum of electronic and thermal Enthalpies=              -0.560698
 Sum of electronic and thermal Free Energies=           -0.586171
 
                     E (Thermal)             CV                S
                      KCal/Mol        Cal/Mol-Kelvin    Cal/Mol-Kelvin
 Total                   18.532              6.435             53.612
 Electronic               0.000              0.000              0.000
 Translational            0.889              2.981             36.130
 Rotational               0.889              2.981             17.393
 Vibrational             16.755              0.473              0.089
                       Q            Log10(Q)             Ln(Q)
 Total Bot       0.498973D-02         -2.301923         -5.300374
 Total V=0       0.917711D+10          9.962706         22.939978
 Vib (Bot)       0.547139D-12        -12.261902        -28.234073
 Vib (V=0)       0.100630D+01          0.002727          0.006279
 Electronic      0.100000D+01          0.000000          0.000000
 Translational   0.646197D+07          6.810365         15.681445
 Rotational      0.141128D+04          3.149614          7.252254
 ***** Axes restored to original set *****
 -------------------------------------------------------------------
 Center     Atomic                   Forces (Hartrees/Bohr)
 Number     Number              X              Y              Z
 -------------------------------------------------------------------
      1        6           0.000127440    0.000000049   -0.000048065
      2        8          -0.000062731   -0.000000186    0.000015584
      3        1          -0.000032515    0.000001039    0.000016241
      4        1          -0.000032195   -0.000000902    0.000016241
 -------------------------------------------------------------------
 Cartesian Forces:  Max     0.000127440 RMS     0.000045964
 Z-matrix is all fixed cartesians, so copy forces.
 Force constants in Cartesian coordinates: 
                1             2             3             4             5 
      1  0.952331D+00
      2  0.000000D+00  0.593337D+00
      3 -0.382513D-04 -0.891823D-05  0.168338D+00
      4 -0.754571D+00  0.000000D+00  0.689897D-04  0.837044D+00
      5  0.000000D+00 -0.103092D+00  0.103831D-05  0.000000D+00  0.711485D-01
      6  0.826937D-04  0.103830D-05 -0.545777D-01 -0.868432D-04 -0.114127D-05
      7 -0.988798D-01  0.843716D-01 -0.171304D-04 -0.412368D-01  0.366879D-01
      8  0.823147D-01 -0.245628D+00  0.225333D-04  0.150687D-01  0.159718D-01
      9 -0.239394D-04  0.375925D-04 -0.568804D-01  0.861224D-05 -0.427901D-05
     10 -0.988803D-01 -0.843716D-01 -0.136080D-04 -0.412367D-01 -0.366878D-01
     11 -0.823147D-01 -0.245627D+00 -0.146534D-04 -0.150686D-01  0.159719D-01
     12 -0.205029D-04 -0.297126D-04 -0.568804D-01  0.924132D-05  0.438198D-05
                6             7             8             9            10 
      6  0.177012D-01
      7  0.130896D-05  0.130946D+00
      8  0.000000D+00 -0.109221D+00  0.247630D+00
      9  0.184383D-01  0.151806D-04 -0.290116D-04  0.192207D-01
     10  0.284057D-05  0.915114D-02  0.118380D-01  0.000000D+00  0.130966D+00
     11  0.000000D+00 -0.118381D-01 -0.179737D-01 -0.430194D-05  0.109221D+00
     12  0.184382D-01  0.000000D+00  0.585475D-05  0.192214D-01  0.106208D-04
               11            12 
     11  0.247629D+00
     12  0.194759D-04  0.192209D-01
 Leave Link  716 at Mon Nov 25 12:08:49 2024, MaxMem=   104857600 cpu:               0.0 elap:               0.1
 (Enter /mlatom/software/Gaussian/g16-avx2/l103.exe)

 GradGradGradGradGradGradGradGradGradGradGradGradGradGradGradGradGradGrad
 Berny optimization.
 Search for a local minimum.
 Step number   1 out of a maximum of    2
 All quantities printed in internal units (Hartrees-Bohrs-Radians)
 Second derivative matrix not updated -- analytic derivatives used.
 The second derivative matrix:
                          X1        Y1        Z1        X2        Y2
           X1           0.95233
           Y1          -0.00000   0.59334
           Z1          -0.00004  -0.00001   0.16834
           X2          -0.75457   0.00000   0.00007   0.83704
           Y2           0.00000  -0.10309   0.00000  -0.00000   0.07115
           Z2           0.00008   0.00000  -0.05458  -0.00009  -0.00000
           X3          -0.09888   0.08437  -0.00002  -0.04124   0.03669
           Y3           0.08231  -0.24563   0.00002   0.01507   0.01597
           Z3          -0.00002   0.00004  -0.05688   0.00001  -0.00000
           X4          -0.09888  -0.08437  -0.00001  -0.04124  -0.03669
           Y4          -0.08231  -0.24563  -0.00001  -0.01507   0.01597
           Z4          -0.00002  -0.00003  -0.05688   0.00001   0.00000
                          Z2        X3        Y3        Z3        X4
           Z2           0.01770
           X3           0.00000   0.13095
           Y3           0.00000  -0.10922   0.24763
           Z3           0.01844   0.00002  -0.00003   0.01922
           X4           0.00000   0.00915   0.01184   0.00000   0.13097
           Y4          -0.00000  -0.01184  -0.01797  -0.00000   0.10922
           Z4           0.01844   0.00000   0.00001   0.01922   0.00001
                          Y4        Z4
           Y4           0.24763
           Z4           0.00002   0.01922
 ITU=  0
     Eigenvalues ---    0.12252   0.14460   0.18719   0.36700   0.74527
     Eigenvalues ---    1.65560
 Angle between quadratic step and forces=  54.21 degrees.
 Linear search not attempted -- first point.
 B after Tr=     0.000063   -0.000000   -0.000014
         Rot=    1.000000    0.000000    0.000014    0.000000 Ang=   0.00 deg.
 Variable       Old X    -DE/DX   Delta X   Delta X   Delta X     New X
                                 (Linear)    (Quad)   (Total)
    X1       -1.00374   0.00013   0.00000   0.00013   0.00020  -1.00354
    Y1        0.00000   0.00000   0.00000   0.00000   0.00000   0.00000
    Z1        0.00019  -0.00005   0.00000  -0.00017  -0.00021  -0.00003
    X2        1.27701  -0.00006   0.00000   0.00003   0.00009   1.27711
    Y2       -0.00000  -0.00000   0.00000  -0.00000  -0.00000  -0.00000
    Z2       -0.00012   0.00002   0.00000   0.00005   0.00007  -0.00005
    X3       -2.09683  -0.00003   0.00000  -0.00021  -0.00015  -2.09698
    Y3        1.77300   0.00000   0.00000  -0.00012  -0.00012   1.77289
    Z3       -0.00013   0.00002   0.00000   0.00014   0.00007  -0.00005
    X4       -2.09684  -0.00003   0.00000  -0.00021  -0.00014  -2.09698
    Y4       -1.77300  -0.00000   0.00000   0.00012   0.00012  -1.77289
    Z4       -0.00005   0.00002   0.00000   0.00014   0.00007   0.00002
         Item               Value     Threshold  Converged?
 Maximum Force            0.000127     0.000450     YES
 RMS     Force            0.000046     0.000300     YES
 Maximum Displacement     0.000214     0.001800     YES
 RMS     Displacement     0.000122     0.001200     YES
 Predicted change in Energy=-2.109893D-08
 Optimization completed.
    -- Stationary point found.
 GradGradGradGradGradGradGradGradGradGradGradGradGradGradGradGradGradGrad

 Leave Link  103 at Mon Nov 25 12:08:49 2024, MaxMem=   104857600 cpu:               0.0 elap:               0.1
 (Enter /mlatom/software/Gaussian/g16-avx2/l9999.exe)
 1\1\GINC-B003\Freq\RExternal='/mlatom/software/miniconda3/bin/python /
 mlatom/home/fatemealavi/mlatom\ZDO\C1H2O1\UNKNOWN\25-Nov-2024\0\\#p fr
 eq external='/mlatom/software/miniconda3/bin/python /mlatom/home/fatem
 ealavi/mlatom_devBranch/mlatom/interfaces/gaussian_interface.py model_
 predict_kwargs'\\bb1ff8ff-8764-429c-a4d9-a52b59034cbe\\0,1\C,-0.531157
 4168,0.0000000182,0.0000991401\O,0.6757671815,-0.0000001745,-0.0000626
 494\H,-1.1095951868,0.9382336526,-0.0000664072\H,-1.1095977643,-0.9382
 323654,-0.0000272378\\Version=ES64L-G16RevA.03\HF=-0.5911753\RMSD=0.00
 0e+00\RMSF=4.596e-05\ZeroPoint=0.0266641\Thermal=0.029533\Dipole=0.,0.
 ,0.\PG=C01 [X(C1H2O1)]\NImag=0\\0.95233083,-0.00000021,0.59333664,-0.0
 0003825,-0.00000892,0.16833848,-0.75457060,0.00000023,0.00006899,0.837
 04418,0.00000022,-0.10309213,0.00000104,-0.00000035,0.07114848,0.00008
 269,0.00000104,-0.05457767,-0.00008684,-0.00000114,0.01770117,-0.09887
 984,0.08437160,-0.00001713,-0.04123683,0.03668790,0.00000131,0.1309462
 9,0.08231471,-0.24562760,0.00002253,0.01506871,0.01597177,0.00000062,-
 0.10922143,0.24762955,-0.00002394,0.00003759,-0.05688038,0.00000861,-0
 .00000428,0.01843828,0.00001518,-0.00002901,0.01922075,-0.09888031,-0.
 08437160,-0.00001361,-0.04123668,-0.03668778,0.00000284,0.00915114,0.0
 1183801,0.00000015,0.13096586,-0.08231471,-0.24562676,-0.00001465,-0.0
 1506860,0.01597186,-0.00000052,-0.01183807,-0.01797371,-0.00000430,0.1
 0922139,0.24762861,-0.00002050,-0.00002971,-0.05688042,0.00000924,0.00
 000438,0.01843820,0.00000064,0.00000585,0.01922135,0.00001062,0.000019
 48,0.01922087\\-0.00012744,-0.00000005,0.00004807,0.00006273,0.0000001
 9,-0.00001558,0.00003251,-0.00000104,-0.00001624,0.00003219,0.00000090
 ,-0.00001624\\\@


 EVERYBODY NEEDS BEAUTY AS WELL AS BREAD, PLACES TO PLAY IN AND PRAY IN,
 WHERE NATURE MAY HEAL AND CHEER AND GIVE STRENGTH TO BODY AND SOUL ALIKE.

                                    -- JOHN MUIR
 Job cpu time:       0 days  0 hours  0 minutes  0.4 seconds.
 Elapsed time:       0 days  0 hours  0 minutes  5.1 seconds.
 File lengths (MBytes):  RWF=     22 Int=      0 D2E=      0 Chk=      2 Scr=      2
 Normal termination of Gaussian 16 at Mon Nov 25 12:08:49 2024.
