 Entering Gaussian System, Link 0=/mlatom/software/Gaussian/g16-avx2/g16
 Input=gaussian.com
 Output=gaussian.log
 Initial command:
 /mlatom/software/Gaussian/g16-avx2/l1.exe "/mlatom/home/fatemealavi/anharmonic/ANI_1ccx_HNO2_new_model/HNO2_ANI_1ccx_TLOnMP2_SP_energyShifter_FixL1and3/freq_HNO2_by_TL_ani_1ccx/Gau-219744.inp" -scrdir="/mlatom/home/fatemealavi/anharmonic/ANI_1ccx_HNO2_new_model/HNO2_ANI_1ccx_TLOnMP2_SP_energyShifter_FixL1and3/freq_HNO2_by_TL_ani_1ccx/"
 Entering Link 1 = /mlatom/software/Gaussian/g16-avx2/l1.exe PID=    219745.
  
 Copyright (c) 1988,1990,1992,1993,1995,1998,2003,2009,2016,
            Gaussian, Inc.  All Rights Reserved.
  
 This is part of the Gaussian(R) 16 program.  It is based on
 the Gaussian(R) 09 system (copyright 2009, Gaussian, Inc.),
 the Gaussian(R) 03 system (copyright 2003, Gaussian, Inc.),
 the Gaussian(R) 98 system (copyright 1998, Gaussian, Inc.),
 the Gaussian(R) 94 system (copyright 1995, Gaussian, Inc.),
 the Gaussian 92(TM) system (copyright 1992, Gaussian, Inc.),
 the Gaussian 90(TM) system (copyright 1990, Gaussian, Inc.),
 the Gaussian 88(TM) system (copyright 1988, Gaussian, Inc.),
 the Gaussian 86(TM) system (copyright 1986, Carnegie Mellon
 University), and the Gaussian 82(TM) system (copyright 1983,
 Carnegie Mellon University). Gaussian is a federally registered
 trademark of Gaussian, Inc.
  
 This software contains proprietary and confidential information,
 including trade secrets, belonging to Gaussian, Inc.
  
 This software is provided under written license and may be
 used, copied, transmitted, or stored only in accord with that
 written license.
  
 The following legend is applicable only to US Government
 contracts under FAR:
  
                    RESTRICTED RIGHTS LEGEND
  
 Use, reproduction and disclosure by the US Government is
 subject to restrictions as set forth in subparagraphs (a)
 and (c) of the Commercial Computer Software - Restricted
 Rights clause in FAR 52.227-19.
  
 Gaussian, Inc.
 340 Quinnipiac St., Bldg. 40, Wallingford CT 06492
  
  
 ---------------------------------------------------------------
 Warning -- This program may not be used in any manner that
 competes with the business of Gaussian, Inc. or will provide
 assistance to any competitor of Gaussian, Inc.  The licensee
 of this program is prohibited from giving any competitor of
 Gaussian, Inc. access to this program.  By using this program,
 the user acknowledges that Gaussian, Inc. is engaged in the
 business of creating and licensing software in the field of
 computational chemistry and represents and warrants to the
 licensee that it is not a competitor of Gaussian, Inc. and that
 it will not use this program in any manner prohibited above.
 ---------------------------------------------------------------
  

 Cite this work as:
 Gaussian 16, Revision A.03,
 M. J. Frisch, G. W. Trucks, H. B. Schlegel, G. E. Scuseria, 
 M. A. Robb, J. R. Cheeseman, G. Scalmani, V. Barone, 
 G. A. Petersson, H. Nakatsuji, X. Li, M. Caricato, A. V. Marenich, 
 J. Bloino, B. G. Janesko, R. Gomperts, B. Mennucci, H. P. Hratchian, 
 J. V. Ortiz, A. F. Izmaylov, J. L. Sonnenberg, D. Williams-Young, 
 F. Ding, F. Lipparini, F. Egidi, J. Goings, B. Peng, A. Petrone, 
 T. Henderson, D. Ranasinghe, V. G. Zakrzewski, J. Gao, N. Rega, 
 G. Zheng, W. Liang, M. Hada, M. Ehara, K. Toyota, R. Fukuda, 
 J. Hasegawa, M. Ishida, T. Nakajima, Y. Honda, O. Kitao, H. Nakai, 
 T. Vreven, K. Throssell, J. A. Montgomery, Jr., J. E. Peralta, 
 F. Ogliaro, M. J. Bearpark, J. J. Heyd, E. N. Brothers, K. N. Kudin, 
 V. N. Staroverov, T. A. Keith, R. Kobayashi, J. Normand, 
 K. Raghavachari, A. P. Rendell, J. C. Burant, S. S. Iyengar, 
 J. Tomasi, M. Cossi, J. M. Millam, M. Klene, C. Adamo, R. Cammi, 
 J. W. Ochterski, R. L. Martin, K. Morokuma, O. Farkas, 
 J. B. Foresman, and D. J. Fox, Gaussian, Inc., Wallingford CT, 2016.
 
 ******************************************
 Gaussian 16:  ES64L-G16RevA.03 25-Dec-2016
                25-Nov-2024 
 ******************************************
 %nproc=1
 Will use up to    1 processors via shared memory.
 ----------------------------------------------------------------------
 #p freq external='/mlatom/software/miniconda3/bin/python /mlatom/home/
 fatemealavi/mlatom_devBranch/mlatom/interfaces/gaussian_interface.py m
 odel_predict_kwargs'
 ----------------------------------------------------------------------
 1/10=4,18=10,30=1,38=1/1,3;
 2/12=2,17=6,18=5,40=1/2;
 3/11=9,25=1,30=1,41=9900000,43=2,71=2,140=1/1;
 4/20=17,22=2,24=3,113=1,114=1/2;
 6/7=2,8=2,9=2,10=2/1;
 7/8=1,25=1,44=-1/16;
 1/10=4,18=10,30=1/3;
 99//99;
 Leave Link    1 at Mon Nov 25 16:38:23 2024, MaxMem=           0 cpu:               0.0 elap:               0.1
 (Enter /mlatom/software/Gaussian/g16-avx2/l101.exe)
 ------------------------------------
 7652aab6-e28b-4fe5-9eb4-01a9534967b9
 ------------------------------------
 Symbolic Z-matrix:
 Charge =  0 Multiplicity = 1
 N                     0.        0.52102   0. 
 O                    -1.11755   0.15314   0. 
 O                     0.89759  -0.59083   0. 
 H                     1.75966  -0.14562   0. 
 
 ITRead=  0  0  0  0
 MicOpt= -1 -1 -1 -1
 NAtoms=      4 NQM=        4 NQMF=       0 NMMI=      0 NMMIF=      0
                NMic=       0 NMicF=      0.
                    Isotopes and Nuclear Properties:
 (Nuclear quadrupole moments (NQMom) in fm**2, nuclear magnetic moments (NMagM)
  in nuclear magnetons)

  Atom         1           2           3           4
 IAtWgt=          14          16          16           1
 AtmWgt=  14.0030740  15.9949146  15.9949146   1.0078250
 NucSpn=           2           0           0           1
 AtZEff=  -0.0000000  -0.0000000  -0.0000000  -0.0000000
 NQMom=    2.0440000   0.0000000   0.0000000   0.0000000
 NMagM=    0.4037610   0.0000000   0.0000000   2.7928460
 AtZNuc=   7.0000000   8.0000000   8.0000000   1.0000000
 Leave Link  101 at Mon Nov 25 16:38:23 2024, MaxMem=   104857600 cpu:               0.1 elap:               0.1
 (Enter /mlatom/software/Gaussian/g16-avx2/l103.exe)

 GradGradGradGradGradGradGradGradGradGradGradGradGradGradGradGradGradGrad
 Berny optimization.
 Initialization pass.
 Trust Radius=3.00D-01 FncErr=1.00D-07 GrdErr=1.00D-07 EigMax=2.50D+02 EigMin=1.00D-04
 Number of steps in this run=      2 maximum allowed number of steps=      2.
 GradGradGradGradGradGradGradGradGradGradGradGradGradGradGradGradGradGrad

 Leave Link  103 at Mon Nov 25 16:38:23 2024, MaxMem=   104857600 cpu:               0.0 elap:               0.0
 (Enter /mlatom/software/Gaussian/g16-avx2/l202.exe)
                          Input orientation:                          
 ---------------------------------------------------------------------
 Center     Atomic      Atomic             Coordinates (Angstroms)
 Number     Number       Type             X           Y           Z
 ---------------------------------------------------------------------
      1          7           0        0.000000    0.521018    0.000000
      2          8           0       -1.117547    0.153143    0.000000
      3          8           0        0.897589   -0.590831    0.000000
      4          1           0        1.759660   -0.145624    0.000000
 ---------------------------------------------------------------------
                    Distance matrix (angstroms):
                    1          2          3          4
     1  N    0.000000
     2  O    1.176539   0.000000
     3  O    1.428941   2.148085   0.000000
     4  H    1.881705   2.892678   0.970245   0.000000
 Stoichiometry    HNO2
 Framework group  CS[SG(HNO2)]
 Deg. of freedom     5
 Full point group                 CS      NOp   2
 Largest Abelian subgroup         CS      NOp   2
 Largest concise Abelian subgroup C1      NOp   1
                         Standard orientation:                         
 ---------------------------------------------------------------------
 Center     Atomic      Atomic             Coordinates (Angstroms)
 Number     Number       Type             X           Y           Z
 ---------------------------------------------------------------------
      1          7           0        0.000000    0.521018    0.000000
      2          8           0       -1.117547    0.153143    0.000000
      3          8           0        0.897589   -0.590831    0.000000
      4          1           0        1.759660   -0.145624    0.000000
 ---------------------------------------------------------------------
 Rotational constants (GHZ):          92.5679461          12.5591428          11.0587487
 Leave Link  202 at Mon Nov 25 16:38:23 2024, MaxMem=   104857600 cpu:               0.0 elap:               0.0
 (Enter /mlatom/software/Gaussian/g16-avx2/l301.exe)
 Standard basis: STO-3G (5D, 7F)
 Ernie: Thresh=  0.10000D-02 Tol=  0.10000D-05 Strict=F.
 There are    13 symmetry adapted cartesian basis functions of A'  symmetry.
 There are     3 symmetry adapted cartesian basis functions of A"  symmetry.
 There are    13 symmetry adapted basis functions of A'  symmetry.
 There are     3 symmetry adapted basis functions of A"  symmetry.
    16 basis functions,    48 primitive gaussians,    16 cartesian basis functions
    12 alpha electrons       12 beta electrons
       nuclear repulsion energy        69.4873421223 Hartrees.
 IExCor=    0 DFT=F Ex=HF Corr=None ExCW=0 ScaHFX=  1.000000
 ScaDFX=  1.000000  1.000000  1.000000  1.000000 ScalE2=  1.000000  1.000000
 IRadAn=      5 IRanWt=     -1 IRanGd=            0 ICorTp=0 IEmpDi=  4
 NAtoms=    4 NActive=    4 NUniq=    4 SFac= 1.00D+00 NAtFMM=   60 NAOKFM=F Big=F
 Integral buffers will be    131072 words long.
 Raffenetti 1 integral format.
 Two-electron integral symmetry is turned on.
 Leave Link  301 at Mon Nov 25 16:38:23 2024, MaxMem=   104857600 cpu:               0.0 elap:               0.1
 (Enter /mlatom/software/Gaussian/g16-avx2/l402.exe)
 External calculation of energy, first and second derivatives.
 Running external command "/mlatom/software/miniconda3/bin/python /mlatom/home/fatemealavi/mlatom_devBranch/mlatom/interfaces/gaussian_interface.py model_predict_kwargs R"
         input file       "/mlatom/home/fatemealavi/anharmonic/ANI_1ccx_HNO2_new_model/HNO2_ANI_1ccx_TLOnMP2_SP_energyShifter_FixL1and3/freq_HNO2_by_TL_ani_1ccx/Gau-219745.EIn"
         output file      "/mlatom/home/fatemealavi/anharmonic/ANI_1ccx_HNO2_new_model/HNO2_ANI_1ccx_TLOnMP2_SP_energyShifter_FixL1and3/freq_HNO2_by_TL_ani_1ccx/Gau-219745.EOu"
         message file     "/mlatom/home/fatemealavi/anharmonic/ANI_1ccx_HNO2_new_model/HNO2_ANI_1ccx_TLOnMP2_SP_energyShifter_FixL1and3/freq_HNO2_by_TL_ani_1ccx/Gau-219745.EMs"
         fchk file        "/mlatom/home/fatemealavi/anharmonic/ANI_1ccx_HNO2_new_model/HNO2_ANI_1ccx_TLOnMP2_SP_energyShifter_FixL1and3/freq_HNO2_by_TL_ani_1ccx/Gau-219745.EFC"
         mat. el file     "/mlatom/home/fatemealavi/anharmonic/ANI_1ccx_HNO2_new_model/HNO2_ANI_1ccx_TLOnMP2_SP_energyShifter_FixL1and3/freq_HNO2_by_TL_ani_1ccx/Gau-219745.EUF"
model loaded from /mlatom/home/fatemealavi/anharmonic/ANI_1ccx_HNO2_new_model/HNO2_ANI_1ccx_TLOnMP2_SP_energyShifter_FixL1and3/ani1ccx_gelu_TL_ani1x_gelu_byFateme/cv0.pt
model loaded from /mlatom/home/fatemealavi/anharmonic/ANI_1ccx_HNO2_new_model/HNO2_ANI_1ccx_TLOnMP2_SP_energyShifter_FixL1and3/ani1ccx_gelu_TL_ani1x_gelu_byFateme/cv1.pt
model loaded from /mlatom/home/fatemealavi/anharmonic/ANI_1ccx_HNO2_new_model/HNO2_ANI_1ccx_TLOnMP2_SP_energyShifter_FixL1and3/ani1ccx_gelu_TL_ani1x_gelu_byFateme/cv2.pt
model loaded from /mlatom/home/fatemealavi/anharmonic/ANI_1ccx_HNO2_new_model/HNO2_ANI_1ccx_TLOnMP2_SP_energyShifter_FixL1and3/ani1ccx_gelu_TL_ani1x_gelu_byFateme/cv3.pt
model loaded from /mlatom/home/fatemealavi/anharmonic/ANI_1ccx_HNO2_new_model/HNO2_ANI_1ccx_TLOnMP2_SP_energyShifter_FixL1and3/ani1ccx_gelu_TL_ani1x_gelu_byFateme/cv4.pt
model loaded from /mlatom/home/fatemealavi/anharmonic/ANI_1ccx_HNO2_new_model/HNO2_ANI_1ccx_TLOnMP2_SP_energyShifter_FixL1and3/ani1ccx_gelu_TL_ani1x_gelu_byFateme/cv5.pt
model loaded from /mlatom/home/fatemealavi/anharmonic/ANI_1ccx_HNO2_new_model/HNO2_ANI_1ccx_TLOnMP2_SP_energyShifter_FixL1and3/ani1ccx_gelu_TL_ani1x_gelu_byFateme/cv6.pt
model loaded from /mlatom/home/fatemealavi/anharmonic/ANI_1ccx_HNO2_new_model/HNO2_ANI_1ccx_TLOnMP2_SP_energyShifter_FixL1and3/ani1ccx_gelu_TL_ani1x_gelu_byFateme/cv7.pt
 Recovered energy=-0.624215328611     dipole=      0.000000000000      0.000000000000      0.000000000000
 Energy=   -0.624215329     NIter=   0.
 Dipole moment=       0.000000       0.000000       0.000000
 Leave Link  402 at Mon Nov 25 16:38:28 2024, MaxMem=   104857600 cpu:               0.0 elap:               4.8
 (Enter /mlatom/software/Gaussian/g16-avx2/l601.exe)
 Leave Link  601 at Mon Nov 25 16:38:28 2024, MaxMem=   104857600 cpu:               0.0 elap:               0.0
 (Enter /mlatom/software/Gaussian/g16-avx2/l716.exe)
 Dipole        = 0.00000000D+00 0.00000000D+00 0.00000000D+00
 Full mass-weighted force constant matrix:
 Low frequencies ---  -21.4429   -4.5909   -0.2086   -0.0324    0.2936   19.1248
 Low frequencies ---  582.6577  599.4528  803.5067
 Diagonal vibrational polarizability:
        0.0000000       0.0000000       0.0000000
 Harmonic frequencies (cm**-1), IR intensities (KM/Mole), Raman scattering
 activities (A**4/AMU), depolarization ratios for plane and unpolarized
 incident light, reduced masses (AMU), force constants (mDyne/A),
 and normal coordinates:
                      1                      2                      3
                     A"                     A'                     A'
 Frequencies --    582.6576               599.4527               803.5066
 Red. masses --      1.1615                11.6339                 5.8597
 Frc consts  --      0.2323                 2.4631                 2.2290
 IR Inten    --      0.0000                 0.0000                 0.0000
  Atom  AN      X      Y      Z        X      Y      Z        X      Y      Z
     1   7     0.00  -0.00  -0.07    -0.34   0.01  -0.00    -0.19   0.48  -0.00
     2   8     0.00  -0.00   0.05    -0.30   0.28   0.00     0.16  -0.18   0.00
     3   8    -0.00   0.00  -0.06     0.58  -0.32  -0.00    -0.01  -0.19  -0.00
     4   1    -0.00  -0.00   0.99     0.17   0.50   0.00     0.28  -0.75   0.00
                      4                      5                      6
                     A'                     A'                     A'
 Frequencies --   1283.5094              1661.5496              3754.7438
 Red. masses --      1.2751                10.1213                 1.0666
 Frc consts  --      1.2376                16.4631                 8.8592
 IR Inten    --      0.0000                 0.0000                 0.0000
  Atom  AN      X      Y      Z        X      Y      Z        X      Y      Z
     1   7    -0.02   0.03   0.00     0.53   0.32  -0.00    -0.00  -0.00  -0.00
     2   8     0.09  -0.01  -0.00    -0.47  -0.19   0.00     0.00   0.00  -0.00
     3   8    -0.04  -0.08   0.00     0.02  -0.12  -0.00    -0.06  -0.03  -0.00
     4   1    -0.51   0.85  -0.00    -0.27   0.52   0.00     0.89   0.45  -0.00

 -------------------
 - Thermochemistry -
 -------------------
 Temperature   298.150 Kelvin.  Pressure   1.00000 Atm.
 Atom     1 has atomic number  7 and mass  14.00307
 Atom     2 has atomic number  8 and mass  15.99491
 Atom     3 has atomic number  8 and mass  15.99491
 Atom     4 has atomic number  1 and mass   1.00783
 Molecular mass:    47.00073 amu.
 Principal axes and moments of inertia in atomic units:
                           1         2         3
     Eigenvalues --    19.49639 143.69939 163.19579
           X            0.93582   0.35248   0.00000
           Y           -0.35248   0.93582   0.00000
           Z           -0.00000   0.00000   1.00000
 This molecule is an asymmetric top.
 Rotational symmetry number  1.
 Rotational temperatures (Kelvin)      4.44256     0.60274     0.53074
 Rotational constants (GHZ):          92.56795    12.55914    11.05875
 Zero-point vibrational energy      51950.3 (Joules/Mol)
                                   12.41643 (Kcal/Mol)
 Warning -- explicit consideration of   2 degrees of freedom as
           vibrations may cause significant error
 Vibrational temperatures:    838.31   862.48  1156.07  1846.68  2390.60
          (Kelvin)           5402.24
 
 Zero-point correction=                           0.019787 (Hartree/Particle)
 Thermal correction to Energy=                    0.023041
 Thermal correction to Enthalpy=                  0.023985
 Thermal correction to Gibbs Free Energy=        -0.004233
 Sum of electronic and zero-point Energies=             -0.604428
 Sum of electronic and thermal Energies=                -0.601174
 Sum of electronic and thermal Enthalpies=              -0.600230
 Sum of electronic and thermal Free Energies=           -0.628448
 
                     E (Thermal)             CV                S
                      KCal/Mol        Cal/Mol-Kelvin    Cal/Mol-Kelvin
 Total                   14.459              8.907             59.391
 Electronic               0.000              0.000              0.000
 Translational            0.889              2.981             37.467
 Rotational               0.889              2.981             20.752
 Vibrational             12.681              2.945              1.171
 Vibration     1          0.939              1.069              0.480
 Vibration     2          0.958              1.033              0.451
                       Q            Log10(Q)             Ln(Q)
 Total Bot       0.885128D+02          1.947006          4.483147
 Total V=0       0.111767D+12         11.048313         25.439682
 Vib (Bot)       0.913042D-09         -9.039509        -20.814240
 Vib (Bot)    1  0.260833D+00         -0.583638         -1.343877
 Vib (Bot)    2  0.249233D+00         -0.603394         -1.389366
 Vib (V=0)       0.115292D+01          0.061798          0.142295
 Vib (V=0)    1  0.106394D+01          0.026919          0.061983
 Vib (V=0)    2  0.105867D+01          0.024762          0.057018
 Electronic      0.100000D+01          0.000000          0.000000
 Translational   0.126652D+08          7.102611         16.354366
 Rotational      0.765429D+04          3.883905          8.943021
 ***** Axes restored to original set *****
 -------------------------------------------------------------------
 Center     Atomic                   Forces (Hartrees/Bohr)
 Number     Number              X              Y              Z
 -------------------------------------------------------------------
      1        7           0.000555204   -0.000159655   -0.000000000
      2        8          -0.000400945   -0.000096500   -0.000000000
      3        8          -0.000170249    0.000269644   -0.000000000
      4        1           0.000015990   -0.000013488   -0.000000000
 -------------------------------------------------------------------
 Cartesian Forces:  Max     0.000555204 RMS     0.000224711
 Z-matrix is all fixed cartesians, so copy forces.
 Force constants in Cartesian coordinates: 
                1             2             3             4             5 
      1  0.633437D+00
      2  0.260591D+00  0.403891D+00
      3  0.000000D+00  0.000000D+00  0.105994D-01
      4 -0.607503D+00 -0.244473D+00  0.000000D+00  0.753272D+00
      5 -0.224024D+00 -0.219882D+00  0.000000D+00  0.173957D+00  0.151562D+00
      6  0.000000D+00  0.000000D+00 -0.922413D-02  0.000000D+00  0.000000D+00
      7 -0.616931D-03  0.988302D-02  0.000000D+00 -0.140126D+00  0.373307D-01
      8 -0.637458D-01 -0.201900D+00  0.000000D+00  0.548465D-01  0.749586D-01
      9  0.000000D+00  0.000000D+00  0.949138D-02  0.000000D+00  0.000000D+00
     10 -0.253172D-01 -0.260004D-01  0.000000D+00 -0.564244D-02  0.127363D-01
     11  0.271785D-01  0.178908D-01  0.000000D+00  0.156705D-01 -0.663920D-02
     12  0.000000D+00  0.000000D+00 -0.108666D-01  0.000000D+00  0.000000D+00
                6             7             8             9            10 
      6  0.810972D-02
      7  0.000000D+00  0.526444D+00
      8  0.000000D+00  0.175985D+00  0.283008D+00
      9 -0.848445D-02  0.000000D+00  0.000000D+00  0.883896D-02
     10  0.000000D+00 -0.385701D+00 -0.167085D+00  0.000000D+00  0.416661D+00
     11  0.000000D+00 -0.223199D+00 -0.156067D+00  0.000000D+00  0.180350D+00
     12  0.959885D-02  0.000000D+00  0.000000D+00 -0.984589D-02  0.000000D+00
               11            12 
     11  0.144815D+00
     12  0.000000D+00  0.111137D-01
 Leave Link  716 at Mon Nov 25 16:38:28 2024, MaxMem=   104857600 cpu:               0.0 elap:               0.1
 (Enter /mlatom/software/Gaussian/g16-avx2/l103.exe)

 GradGradGradGradGradGradGradGradGradGradGradGradGradGradGradGradGradGrad
 Berny optimization.
 Search for a local minimum.
 Step number   1 out of a maximum of    2
 All quantities printed in internal units (Hartrees-Bohrs-Radians)
 Second derivative matrix not updated -- analytic derivatives used.
 The second derivative matrix:
                          X1        Y1        Z1        X2        Y2
           X1           0.63344
           Y1           0.26059   0.40389
           Z1           0.00000   0.00000   0.01060
           X2          -0.60750  -0.24447   0.00000   0.75327
           Y2          -0.22402  -0.21988   0.00000   0.17396   0.15156
           Z2           0.00000   0.00000  -0.00922   0.00000   0.00000
           X3          -0.00062   0.00988   0.00000  -0.14013   0.03733
           Y3          -0.06375  -0.20190   0.00000   0.05485   0.07496
           Z3           0.00000   0.00000   0.00949   0.00000   0.00000
           X4          -0.02532  -0.02600   0.00000  -0.00564   0.01274
           Y4           0.02718   0.01789   0.00000   0.01567  -0.00664
           Z4           0.00000   0.00000  -0.01087   0.00000   0.00000
                          Z2        X3        Y3        Z3        X4
           Z2           0.00811
           X3           0.00000   0.52644
           Y3           0.00000   0.17598   0.28301
           Z3          -0.00848   0.00000   0.00000   0.00884
           X4           0.00000  -0.38570  -0.16709   0.00000   0.41666
           Y4           0.00000  -0.22320  -0.15607   0.00000   0.18035
           Z4           0.00960   0.00000   0.00000  -0.00985   0.00000
                          Y4        Z4
           Y4           0.14482
           Z4           0.00000   0.01111
 ITU=  0
     Eigenvalues ---    0.03023   0.08079   0.18473   0.40586   0.94992
     Eigenvalues ---    1.53754
 Angle between quadratic step and forces=  38.00 degrees.
 ClnCor:  largest displacement from symmetrization is 7.43D-19 for atom     4.
 Linear search not attempted -- first point.
 ClnCor:  largest displacement from symmetrization is 0.00D+00 for atom     0.
 B after Tr=     0.000033    0.000024    0.000000
         Rot=    1.000000   -0.000000   -0.000000   -0.000009 Ang=  -0.00 deg.
 Variable       Old X    -DE/DX   Delta X   Delta X   Delta X     New X
                                 (Linear)    (Quad)   (Total)
    X1        0.00000   0.00056   0.00000   0.00117   0.00119   0.00119
    Y1        0.98458  -0.00016   0.00000  -0.00078  -0.00076   0.98382
    Z1        0.00000  -0.00000   0.00000   0.00000   0.00000   0.00000
    X2       -2.11186  -0.00040   0.00000  -0.00003  -0.00000  -2.11186
    Y2        0.28940  -0.00010   0.00000  -0.00027  -0.00028   0.28912
    Z2        0.00000  -0.00000   0.00000   0.00000   0.00000   0.00000
    X3        1.69620  -0.00017   0.00000  -0.00095  -0.00090   1.69530
    Y3       -1.11651   0.00027   0.00000   0.00105   0.00111  -1.11540
    Z3        0.00000  -0.00000   0.00000   0.00000   0.00000   0.00000
    X4        3.32528   0.00002   0.00000  -0.00032  -0.00028   3.32499
    Y4       -0.27519  -0.00001   0.00000  -0.00016  -0.00007  -0.27526
    Z4        0.00000  -0.00000   0.00000   0.00000   0.00000   0.00000
         Item               Value     Threshold  Converged?
 Maximum Force            0.000555     0.000450     NO 
 RMS     Force            0.000225     0.000300     YES
 Maximum Displacement     0.001186     0.001800     YES
 RMS     Displacement     0.000590     0.001200     YES
 Predicted change in Energy=-6.279196D-07
 GradGradGradGradGradGradGradGradGradGradGradGradGradGradGradGradGradGrad

 Leave Link  103 at Mon Nov 25 16:38:28 2024, MaxMem=   104857600 cpu:               0.0 elap:               0.1
 (Enter /mlatom/software/Gaussian/g16-avx2/l9999.exe)
 1\1\GINC-B003\Freq\RExternal='/mlatom/software/miniconda3/bin/python /
 mlatom/home/fatemealavi/mlatom\ZDO\H1N1O2\UNKNOWN\25-Nov-2024\0\\#p fr
 eq external='/mlatom/software/miniconda3/bin/python /mlatom/home/fatem
 ealavi/mlatom_devBranch/mlatom/interfaces/gaussian_interface.py model_
 predict_kwargs'\\7652aab6-e28b-4fe5-9eb4-01a9534967b9\\0,1\N,0.,0.5210
 178151,0.\O,-1.1175469322,0.1531428907,0.\O,0.8975893862,-0.5908305288
 ,0.\H,1.7596603684,-0.1456236012,0.\\Version=ES64L-G16RevA.03\HF=-0.62
 42153\RMSD=0.000e+00\RMSF=2.247e-04\ZeroPoint=0.0197868\Thermal=0.0230
 413\Dipole=0.,0.,0.\PG=CS [SG(H1N1O2)]\NImag=0\\0.63343734,0.26059088,
 0.40389115,0.,0.,0.01059937,-0.60750318,-0.24447344,0.,0.75327206,-0.2
 2402354,-0.21988174,0.,0.17395651,0.15156236,0.,0.,-0.00922413,0.,0.,0
 .00810972,-0.00061693,0.00988302,0.,-0.14012645,0.03733073,0.,0.526444
 38,-0.06374577,-0.20190026,0.,0.05484645,0.07495860,0.,0.17598478,0.28
 300837,0.,0.,0.00949138,0.,0.,-0.00848445,0.,0.,0.00883896,-0.02531721
 ,-0.02600040,0.,-0.00564244,0.01273632,0.,-0.38570097,-0.16708547,0.,0
 .41666070,0.02717845,0.01789081,0.,0.01567055,-0.00663920,0.,-0.223198
 50,-0.15606672,0.,0.18034951,0.14481509,0.,0.,-0.01086662,0.,0.,0.0095
 9885,0.,0.,-0.00984589,0.,0.,0.01111366\\-0.00055520,0.00015966,0.,0.0
 0040094,0.00009650,0.,0.00017025,-0.00026964,0.,-0.00001599,0.00001349
 ,0.\\\@


 A MAN SHOULD NEVER BE ASHAMED TO OWN HE HAS BEEN IN THE WRONG
 WHICH IS BUT SAYING IN OTHER WORDS,
 THAT HE IS WISER TODAY THAN HE WAS YESTERDAY.

                          -- JONATHAN SWIFT
 Job cpu time:       0 days  0 hours  0 minutes  0.4 seconds.
 Elapsed time:       0 days  0 hours  0 minutes  5.5 seconds.
 File lengths (MBytes):  RWF=     22 Int=      0 D2E=      0 Chk=      2 Scr=      2
 Normal termination of Gaussian 16 at Mon Nov 25 16:38:28 2024.
