 Entering Gaussian System, Link 0=/mlatom/software/Gaussian/g16-avx2/g16
 Input=gaussian.com
 Output=gaussian.log
 Initial command:
 /mlatom/software/Gaussian/g16-avx2/l1.exe "/mlatom/home/fatemealavi/anharmonic/ANI_1ccx_HCOOH_new_model/HCOOH_ANI_1ccx_TLOnCCSDT_F12_SP_energyShifter_FixL5and7/freq_HCOOH_by_TL_ani_1ccx/Gau-211632.inp" -scrdir="/mlatom/home/fatemealavi/anharmonic/ANI_1ccx_HCOOH_new_model/HCOOH_ANI_1ccx_TLOnCCSDT_F12_SP_energyShifter_FixL5and7/freq_HCOOH_by_TL_ani_1ccx/"
 Entering Link 1 = /mlatom/software/Gaussian/g16-avx2/l1.exe PID=    211633.
  
 Copyright (c) 1988,1990,1992,1993,1995,1998,2003,2009,2016,
            Gaussian, Inc.  All Rights Reserved.
  
 This is part of the Gaussian(R) 16 program.  It is based on
 the Gaussian(R) 09 system (copyright 2009, Gaussian, Inc.),
 the Gaussian(R) 03 system (copyright 2003, Gaussian, Inc.),
 the Gaussian(R) 98 system (copyright 1998, Gaussian, Inc.),
 the Gaussian(R) 94 system (copyright 1995, Gaussian, Inc.),
 the Gaussian 92(TM) system (copyright 1992, Gaussian, Inc.),
 the Gaussian 90(TM) system (copyright 1990, Gaussian, Inc.),
 the Gaussian 88(TM) system (copyright 1988, Gaussian, Inc.),
 the Gaussian 86(TM) system (copyright 1986, Carnegie Mellon
 University), and the Gaussian 82(TM) system (copyright 1983,
 Carnegie Mellon University). Gaussian is a federally registered
 trademark of Gaussian, Inc.
  
 This software contains proprietary and confidential information,
 including trade secrets, belonging to Gaussian, Inc.
  
 This software is provided under written license and may be
 used, copied, transmitted, or stored only in accord with that
 written license.
  
 The following legend is applicable only to US Government
 contracts under FAR:
  
                    RESTRICTED RIGHTS LEGEND
  
 Use, reproduction and disclosure by the US Government is
 subject to restrictions as set forth in subparagraphs (a)
 and (c) of the Commercial Computer Software - Restricted
 Rights clause in FAR 52.227-19.
  
 Gaussian, Inc.
 340 Quinnipiac St., Bldg. 40, Wallingford CT 06492
  
  
 ---------------------------------------------------------------
 Warning -- This program may not be used in any manner that
 competes with the business of Gaussian, Inc. or will provide
 assistance to any competitor of Gaussian, Inc.  The licensee
 of this program is prohibited from giving any competitor of
 Gaussian, Inc. access to this program.  By using this program,
 the user acknowledges that Gaussian, Inc. is engaged in the
 business of creating and licensing software in the field of
 computational chemistry and represents and warrants to the
 licensee that it is not a competitor of Gaussian, Inc. and that
 it will not use this program in any manner prohibited above.
 ---------------------------------------------------------------
  

 Cite this work as:
 Gaussian 16, Revision A.03,
 M. J. Frisch, G. W. Trucks, H. B. Schlegel, G. E. Scuseria, 
 M. A. Robb, J. R. Cheeseman, G. Scalmani, V. Barone, 
 G. A. Petersson, H. Nakatsuji, X. Li, M. Caricato, A. V. Marenich, 
 J. Bloino, B. G. Janesko, R. Gomperts, B. Mennucci, H. P. Hratchian, 
 J. V. Ortiz, A. F. Izmaylov, J. L. Sonnenberg, D. Williams-Young, 
 F. Ding, F. Lipparini, F. Egidi, J. Goings, B. Peng, A. Petrone, 
 T. Henderson, D. Ranasinghe, V. G. Zakrzewski, J. Gao, N. Rega, 
 G. Zheng, W. Liang, M. Hada, M. Ehara, K. Toyota, R. Fukuda, 
 J. Hasegawa, M. Ishida, T. Nakajima, Y. Honda, O. Kitao, H. Nakai, 
 T. Vreven, K. Throssell, J. A. Montgomery, Jr., J. E. Peralta, 
 F. Ogliaro, M. J. Bearpark, J. J. Heyd, E. N. Brothers, K. N. Kudin, 
 V. N. Staroverov, T. A. Keith, R. Kobayashi, J. Normand, 
 K. Raghavachari, A. P. Rendell, J. C. Burant, S. S. Iyengar, 
 J. Tomasi, M. Cossi, J. M. Millam, M. Klene, C. Adamo, R. Cammi, 
 J. W. Ochterski, R. L. Martin, K. Morokuma, O. Farkas, 
 J. B. Foresman, and D. J. Fox, Gaussian, Inc., Wallingford CT, 2016.
 
 ******************************************
 Gaussian 16:  ES64L-G16RevA.03 25-Dec-2016
                25-Nov-2024 
 ******************************************
 %nproc=1
 Will use up to    1 processors via shared memory.
 ----------------------------------------------------------------------
 #p freq external='/mlatom/software/miniconda3/bin/python /mlatom/home/
 fatemealavi/mlatom_devBranch/mlatom/interfaces/gaussian_interface.py m
 odel_predict_kwargs'
 ----------------------------------------------------------------------
 1/10=4,18=10,30=1,38=1/1,3;
 2/12=2,17=6,18=5,40=1/2;
 3/11=9,25=1,30=1,41=9900000,43=2,71=2,140=1/1;
 4/20=17,22=2,24=3,113=1,114=1/2;
 6/7=2,8=2,9=2,10=2/1;
 7/8=1,25=1,44=-1/16;
 1/10=4,18=10,30=1/3;
 99//99;
 Leave Link    1 at Mon Nov 25 15:26:36 2024, MaxMem=           0 cpu:               0.0 elap:               0.1
 (Enter /mlatom/software/Gaussian/g16-avx2/l101.exe)
 ------------------------------------
 e5837830-2e14-44f8-8484-5772f7198257
 ------------------------------------
 Symbolic Z-matrix:
 Charge =  0 Multiplicity = 1
 C                    -0.13357   0.40085   0.00003 
 O                    -1.13238  -0.26385  -0.00001 
 O                     1.11639  -0.0916   -0.00001 
 H                    -0.10569   1.4945    0.00003 
 H                     1.03498  -1.056    -0.00004 
 
 ITRead=  0  0  0  0  0
 MicOpt= -1 -1 -1 -1 -1
 NAtoms=      5 NQM=        5 NQMF=       0 NMMI=      0 NMMIF=      0
                NMic=       0 NMicF=      0.
                    Isotopes and Nuclear Properties:
 (Nuclear quadrupole moments (NQMom) in fm**2, nuclear magnetic moments (NMagM)
  in nuclear magnetons)

  Atom         1           2           3           4           5
 IAtWgt=          12          16          16           1           1
 AtmWgt=  12.0000000  15.9949146  15.9949146   1.0078250   1.0078250
 NucSpn=           0           0           0           1           1
 AtZEff=  -0.0000000  -0.0000000  -0.0000000  -0.0000000  -0.0000000
 NQMom=    0.0000000   0.0000000   0.0000000   0.0000000   0.0000000
 NMagM=    0.0000000   0.0000000   0.0000000   2.7928460   2.7928460
 AtZNuc=   6.0000000   8.0000000   8.0000000   1.0000000   1.0000000
 Leave Link  101 at Mon Nov 25 15:26:37 2024, MaxMem=   104857600 cpu:               0.1 elap:               0.2
 (Enter /mlatom/software/Gaussian/g16-avx2/l103.exe)

 GradGradGradGradGradGradGradGradGradGradGradGradGradGradGradGradGradGrad
 Berny optimization.
 Initialization pass.
 Trust Radius=3.00D-01 FncErr=1.00D-07 GrdErr=1.00D-07 EigMax=2.50D+02 EigMin=1.00D-04
 Number of steps in this run=      2 maximum allowed number of steps=      2.
 GradGradGradGradGradGradGradGradGradGradGradGradGradGradGradGradGradGrad

 Leave Link  103 at Mon Nov 25 15:26:37 2024, MaxMem=   104857600 cpu:               0.0 elap:               0.0
 (Enter /mlatom/software/Gaussian/g16-avx2/l202.exe)
                          Input orientation:                          
 ---------------------------------------------------------------------
 Center     Atomic      Atomic             Coordinates (Angstroms)
 Number     Number       Type             X           Y           Z
 ---------------------------------------------------------------------
      1          6           0       -0.133568    0.400852    0.000026
      2          8           0       -1.132380   -0.263851   -0.000011
      3          8           0        1.116394   -0.091600   -0.000008
      4          1           0       -0.105687    1.494496    0.000033
      5          1           0        1.034985   -1.056002   -0.000039
 ---------------------------------------------------------------------
                    Distance matrix (angstroms):
                    1          2          3          4          5
     1  C    0.000000
     2  O    1.199773   0.000000
     3  O    1.343472   2.255362   0.000000
     4  H    1.093999   2.036144   2.002294   0.000000
     5  H    1.867603   2.307591   0.967832   2.793953   0.000000
 Stoichiometry    CH2O2
 Framework group  C1[X(CH2O2)]
 Deg. of freedom     9
 Full point group                 C1      NOp   1
 Largest Abelian subgroup         C1      NOp   1
 Largest concise Abelian subgroup C1      NOp   1
                         Standard orientation:                         
 ---------------------------------------------------------------------
 Center     Atomic      Atomic             Coordinates (Angstroms)
 Number     Number       Type             X           Y           Z
 ---------------------------------------------------------------------
      1          6           0       -0.133568    0.400852    0.000026
      2          8           0       -1.132380   -0.263851   -0.000011
      3          8           0        1.116394   -0.091600   -0.000008
      4          1           0       -0.105687    1.494496    0.000033
      5          1           0        1.034985   -1.056002   -0.000039
 ---------------------------------------------------------------------
 Rotational constants (GHZ):          77.7069137          12.0977644          10.4680508
 Leave Link  202 at Mon Nov 25 15:26:37 2024, MaxMem=   104857600 cpu:               0.0 elap:               0.0
 (Enter /mlatom/software/Gaussian/g16-avx2/l301.exe)
 Standard basis: STO-3G (5D, 7F)
 Ernie: Thresh=  0.10000D-02 Tol=  0.10000D-05 Strict=F.
 There are    17 symmetry adapted cartesian basis functions of A   symmetry.
 There are    17 symmetry adapted basis functions of A   symmetry.
    17 basis functions,    51 primitive gaussians,    17 cartesian basis functions
    12 alpha electrons       12 beta electrons
       nuclear repulsion energy        70.2879061187 Hartrees.
 IExCor=    0 DFT=F Ex=HF Corr=None ExCW=0 ScaHFX=  1.000000
 ScaDFX=  1.000000  1.000000  1.000000  1.000000 ScalE2=  1.000000  1.000000
 IRadAn=      5 IRanWt=     -1 IRanGd=            0 ICorTp=0 IEmpDi=  4
 NAtoms=    5 NActive=    5 NUniq=    5 SFac= 1.00D+00 NAtFMM=   60 NAOKFM=F Big=F
 Integral buffers will be    131072 words long.
 Raffenetti 1 integral format.
 Two-electron integral symmetry is turned on.
 Leave Link  301 at Mon Nov 25 15:26:37 2024, MaxMem=   104857600 cpu:               0.0 elap:               0.1
 (Enter /mlatom/software/Gaussian/g16-avx2/l402.exe)
 External calculation of energy, first and second derivatives.
 Running external command "/mlatom/software/miniconda3/bin/python /mlatom/home/fatemealavi/mlatom_devBranch/mlatom/interfaces/gaussian_interface.py model_predict_kwargs R"
         input file       "/mlatom/home/fatemealavi/anharmonic/ANI_1ccx_HCOOH_new_model/HCOOH_ANI_1ccx_TLOnCCSDT_F12_SP_energyShifter_FixL5and7/freq_HCOOH_by_TL_ani_1ccx/Gau-211633.EIn"
         output file      "/mlatom/home/fatemealavi/anharmonic/ANI_1ccx_HCOOH_new_model/HCOOH_ANI_1ccx_TLOnCCSDT_F12_SP_energyShifter_FixL5and7/freq_HCOOH_by_TL_ani_1ccx/Gau-211633.EOu"
         message file     "/mlatom/home/fatemealavi/anharmonic/ANI_1ccx_HCOOH_new_model/HCOOH_ANI_1ccx_TLOnCCSDT_F12_SP_energyShifter_FixL5and7/freq_HCOOH_by_TL_ani_1ccx/Gau-211633.EMs"
         fchk file        "/mlatom/home/fatemealavi/anharmonic/ANI_1ccx_HCOOH_new_model/HCOOH_ANI_1ccx_TLOnCCSDT_F12_SP_energyShifter_FixL5and7/freq_HCOOH_by_TL_ani_1ccx/Gau-211633.EFC"
         mat. el file     "/mlatom/home/fatemealavi/anharmonic/ANI_1ccx_HCOOH_new_model/HCOOH_ANI_1ccx_TLOnCCSDT_F12_SP_energyShifter_FixL5and7/freq_HCOOH_by_TL_ani_1ccx/Gau-211633.EUF"
model loaded from /mlatom/home/fatemealavi/anharmonic/ANI_1ccx_HCOOH_new_model/HCOOH_ANI_1ccx_TLOnCCSDT_F12_SP_energyShifter_FixL5and7/ani1ccx_gelu_TL_CCSDT_F12_HCOOH_byFateme/cv0.pt
model loaded from /mlatom/home/fatemealavi/anharmonic/ANI_1ccx_HCOOH_new_model/HCOOH_ANI_1ccx_TLOnCCSDT_F12_SP_energyShifter_FixL5and7/ani1ccx_gelu_TL_CCSDT_F12_HCOOH_byFateme/cv1.pt
model loaded from /mlatom/home/fatemealavi/anharmonic/ANI_1ccx_HCOOH_new_model/HCOOH_ANI_1ccx_TLOnCCSDT_F12_SP_energyShifter_FixL5and7/ani1ccx_gelu_TL_CCSDT_F12_HCOOH_byFateme/cv2.pt
model loaded from /mlatom/home/fatemealavi/anharmonic/ANI_1ccx_HCOOH_new_model/HCOOH_ANI_1ccx_TLOnCCSDT_F12_SP_energyShifter_FixL5and7/ani1ccx_gelu_TL_CCSDT_F12_HCOOH_byFateme/cv3.pt
model loaded from /mlatom/home/fatemealavi/anharmonic/ANI_1ccx_HCOOH_new_model/HCOOH_ANI_1ccx_TLOnCCSDT_F12_SP_energyShifter_FixL5and7/ani1ccx_gelu_TL_CCSDT_F12_HCOOH_byFateme/cv4.pt
model loaded from /mlatom/home/fatemealavi/anharmonic/ANI_1ccx_HCOOH_new_model/HCOOH_ANI_1ccx_TLOnCCSDT_F12_SP_energyShifter_FixL5and7/ani1ccx_gelu_TL_CCSDT_F12_HCOOH_byFateme/cv5.pt
model loaded from /mlatom/home/fatemealavi/anharmonic/ANI_1ccx_HCOOH_new_model/HCOOH_ANI_1ccx_TLOnCCSDT_F12_SP_energyShifter_FixL5and7/ani1ccx_gelu_TL_CCSDT_F12_HCOOH_byFateme/cv6.pt
model loaded from /mlatom/home/fatemealavi/anharmonic/ANI_1ccx_HCOOH_new_model/HCOOH_ANI_1ccx_TLOnCCSDT_F12_SP_energyShifter_FixL5and7/ani1ccx_gelu_TL_CCSDT_F12_HCOOH_byFateme/cv7.pt
 Recovered energy=-0.791194758254     dipole=      0.000000000000      0.000000000000      0.000000000000
 Energy=   -0.791194758     NIter=   0.
 Dipole moment=       0.000000       0.000000       0.000000
 Leave Link  402 at Mon Nov 25 15:26:42 2024, MaxMem=   104857600 cpu:               0.0 elap:               5.0
 (Enter /mlatom/software/Gaussian/g16-avx2/l601.exe)
 Leave Link  601 at Mon Nov 25 15:26:42 2024, MaxMem=   104857600 cpu:               0.0 elap:               0.0
 (Enter /mlatom/software/Gaussian/g16-avx2/l716.exe)
 Dipole        = 0.00000000D+00 0.00000000D+00 0.00000000D+00
 Full mass-weighted force constant matrix:
 Low frequencies ---  -16.6079   -4.9037    0.0327    0.2355    0.2630    6.7065
 Low frequencies ---  630.9705  671.3532 1054.5731
 Diagonal vibrational polarizability:
        0.0000000       0.0000000       0.0000000
 Harmonic frequencies (cm**-1), IR intensities (KM/Mole), Raman scattering
 activities (A**4/AMU), depolarization ratios for plane and unpolarized
 incident light, reduced masses (AMU), force constants (mDyne/A),
 and normal coordinates:
                      1                      2                      3
                      A                      A                      A
 Frequencies --    630.9705               671.3530              1054.5731
 Red. masses --      3.4900                 1.2501                 1.5782
 Frc consts  --      0.8186                 0.3320                 1.0341
 IR Inten    --      0.0000                 0.0000                 0.0000
  Atom  AN      X      Y      Z        X      Y      Z        X      Y      Z
     1   6     0.02   0.23   0.00     0.00   0.00   0.09     0.00   0.00  -0.21
     2   8     0.26  -0.11  -0.00     0.00  -0.00  -0.04     0.00  -0.00   0.06
     3   8    -0.21  -0.08   0.00    -0.00  -0.00  -0.09    -0.00   0.00   0.04
     4   1    -0.09   0.23  -0.00    -0.00   0.00   0.19     0.00  -0.00   0.97
     5   1    -0.87  -0.03  -0.00    -0.00  -0.00   0.97     0.00  -0.00   0.13
                      4                      5                      6
                      A                      A                      A
 Frequencies --   1136.0544              1315.7752              1406.8796
 Red. masses --      3.2643                 1.7625                 1.1380
 Frc consts  --      2.4822                 1.7978                 1.3271
 IR Inten    --      0.0000                 0.0000                 0.0000
  Atom  AN      X      Y      Z        X      Y      Z        X      Y      Z
     1   6    -0.17   0.17   0.00    -0.15   0.17   0.00    -0.02   0.02   0.00
     2   8    -0.10  -0.05  -0.00     0.04  -0.04  -0.00    -0.05  -0.06  -0.00
     3   8     0.30  -0.08  -0.00     0.00  -0.09  -0.00     0.02   0.04   0.00
     4   1    -0.50   0.17   0.00     0.28   0.18   0.00     0.95   0.01  -0.00
     5   1    -0.74  -0.02   0.00     0.90  -0.13  -0.00    -0.30   0.06   0.00
                      7                      8                      9
                      A                      A                      A
 Frequencies --   1812.3414              3092.9371              3756.3295
 Red. masses --      8.0627                 1.0930                 1.0637
 Frc consts  --     15.6031                 6.1607                 8.8433
 IR Inten    --      0.0000                 0.0000                 0.0000
  Atom  AN      X      Y      Z        X      Y      Z        X      Y      Z
     1   6     0.54   0.32   0.00    -0.00  -0.09  -0.00     0.00  -0.00  -0.00
     2   8    -0.35  -0.24  -0.00     0.00   0.00   0.00    -0.00   0.00  -0.00
     3   8    -0.06  -0.02   0.00     0.00   0.00   0.00    -0.00  -0.06  -0.00
     4   1    -0.33   0.40   0.00     0.01   1.00   0.00     0.00   0.02  -0.00
     5   1     0.39  -0.05  -0.00    -0.01  -0.02   0.00     0.05   1.00   0.00

 -------------------
 - Thermochemistry -
 -------------------
 Temperature   298.150 Kelvin.  Pressure   1.00000 Atm.
 Atom     1 has atomic number  6 and mass  12.00000
 Atom     2 has atomic number  8 and mass  15.99491
 Atom     3 has atomic number  8 and mass  15.99491
 Atom     4 has atomic number  1 and mass   1.00783
 Atom     5 has atomic number  1 and mass   1.00783
 Molecular mass:    46.00548 amu.
 Principal axes and moments of inertia in atomic units:
                           1         2         3
     Eigenvalues --    23.22498 149.17973 172.40470
           X            0.99939  -0.03493   0.00000
           Y            0.03493   0.99939  -0.00004
           Z           -0.00000   0.00004   1.00000
 This molecule is an asymmetric top.
 Rotational symmetry number  1.
 Rotational temperatures (Kelvin)      3.72934     0.58060     0.50239
 Rotational constants (GHZ):          77.70691    12.09776    10.46805
 Zero-point vibrational energy      88985.5 (Joules/Mol)
                                   21.26804 (Kcal/Mol)
 Vibrational temperatures:    907.83   965.93  1517.30  1634.53  1893.11
          (Kelvin)           2024.19  2607.56  4450.05  5404.52
 
 Zero-point correction=                           0.033893 (Hartree/Particle)
 Thermal correction to Energy=                    0.037064
 Thermal correction to Enthalpy=                  0.038008
 Thermal correction to Gibbs Free Energy=         0.009815
 Sum of electronic and zero-point Energies=             -0.757302
 Sum of electronic and thermal Energies=                -0.754131
 Sum of electronic and thermal Enthalpies=              -0.753186
 Sum of electronic and thermal Free Energies=           -0.781380
 
                     E (Thermal)             CV                S
                      KCal/Mol        Cal/Mol-Kelvin    Cal/Mol-Kelvin
 Total                   23.258              8.653             59.338
 Electronic               0.000              0.000              0.000
 Translational            0.889              2.981             37.404
 Rotational               0.889              2.981             21.018
 Vibrational             21.481              2.692              0.916
                       Q            Log10(Q)             Ln(Q)
 Total Bot       0.305764D-04         -4.514614        -10.395283
 Total V=0       0.118843D+12         11.074972         25.501066
 Vib (Bot)       0.284948D-15        -15.545235        -35.794226
 Vib (V=0)       0.110752D+01          0.044351          0.102122
 Electronic      0.100000D+01          0.000000          0.000000
 Translational   0.122650D+08          7.088668         16.322262
 Rotational      0.874888D+04          3.941953          9.076682
 ***** Axes restored to original set *****
 -------------------------------------------------------------------
 Center     Atomic                   Forces (Hartrees/Bohr)
 Number     Number              X              Y              Z
 -------------------------------------------------------------------
      1        6           0.000163075   -0.000027052   -0.000007499
      2        8          -0.000095898   -0.000052840    0.000002747
      3        8          -0.000146631    0.000112020    0.000002165
      4        1           0.000036650    0.000036449    0.000002613
      5        1           0.000042805   -0.000068578   -0.000000025
 -------------------------------------------------------------------
 Cartesian Forces:  Max     0.000163075 RMS     0.000074227
 Z-matrix is all fixed cartesians, so copy forces.
 Force constants in Cartesian coordinates: 
                1             2             3             4             5 
      1  0.835241D+00
      2  0.200387D+00  0.853590D+00
      3  0.987655D-05  0.205313D-04  0.190823D+00
      4 -0.535882D+00 -0.312643D+00 -0.152390D-04  0.640137D+00
      5 -0.301503D+00 -0.348334D+00 -0.125168D-04  0.353503D+00  0.320205D+00
      6 -0.163448D-04 -0.139212D-04 -0.714497D-01  0.176045D-04  0.137345D-04
      7 -0.253921D+00  0.581666D-01  0.322562D-05 -0.101015D+00 -0.425101D-02
      8  0.887812D-01 -0.170459D+00 -0.413026D-05 -0.179661D-01  0.428370D-01
      9  0.592392D-05 -0.423603D-05 -0.604014D-01 -0.104529D-05  0.000000D+00
     10 -0.495239D-01 -0.369873D-02  0.000000D+00 -0.577866D-02 -0.394336D-01
     11  0.474570D-02 -0.304404D+00 -0.288936D-05 -0.144574D-01 -0.172050D-01
     12  0.000000D+00  0.000000D+00 -0.639629D-01 -0.111637D-05 -0.205981D-05
     13  0.408559D-02  0.577883D-01  0.187484D-05  0.253843D-02 -0.831574D-02
     14  0.758900D-02 -0.303933D-01  0.000000D+00 -0.843657D-02  0.249706D-02
     15  0.000000D+00 -0.236263D-05  0.499071D-02  0.000000D+00  0.000000D+00
                6             7             8             9            10 
      6  0.283392D-01
      7  0.000000D+00  0.415417D+00
      8  0.000000D+00 -0.353873D-01  0.625632D+00
      9  0.282909D-01 -0.420153D-05  0.195572D-04  0.392368D-01
     10 -0.128397D-05 -0.730985D-02  0.377270D-01  0.000000D+00  0.683589D-01
     11  0.000000D+00  0.548994D-02 -0.175361D-01  0.000000D+00  0.198861D-02
     12  0.213240D-01  0.000000D+00 -0.147712D-05  0.108552D-01  0.000000D+00
     13  0.000000D+00 -0.531712D-01 -0.731548D-01 -0.162618D-05 -0.574650D-02
     14  0.000000D+00 -0.240182D-01 -0.480474D+00 -0.152981D-04  0.341672D-02
     15 -0.650453D-02  0.000000D+00 -0.144872D-04 -0.179814D-01  0.000000D+00
               11            12            13            14            15 
     11  0.338192D+00
     12  0.391005D-05  0.258007D-01
     13  0.223311D-02  0.000000D+00  0.522937D-01
     14  0.953306D-03  0.000000D+00  0.214491D-01  0.507417D+00
     15  0.000000D+00  0.598294D-02  0.000000D+00  0.163891D-04  0.135123D-01
 Leave Link  716 at Mon Nov 25 15:26:42 2024, MaxMem=   104857600 cpu:               0.0 elap:               0.1
 (Enter /mlatom/software/Gaussian/g16-avx2/l103.exe)

 GradGradGradGradGradGradGradGradGradGradGradGradGradGradGradGradGradGrad
 Berny optimization.
 Search for a local minimum.
 Step number   1 out of a maximum of    2
 All quantities printed in internal units (Hartrees-Bohrs-Radians)
 Second derivative matrix not updated -- analytic derivatives used.
 The second derivative matrix:
                          X1        Y1        Z1        X2        Y2
           X1           0.83524
           Y1           0.20039   0.85359
           Z1           0.00001   0.00002   0.19082
           X2          -0.53588  -0.31264  -0.00002   0.64014
           Y2          -0.30150  -0.34833  -0.00001   0.35350   0.32021
           Z2          -0.00002  -0.00001  -0.07145   0.00002   0.00001
           X3          -0.25392   0.05817   0.00000  -0.10102  -0.00425
           Y3           0.08878  -0.17046  -0.00000  -0.01797   0.04284
           Z3           0.00001  -0.00000  -0.06040  -0.00000   0.00000
           X4          -0.04952  -0.00370   0.00000  -0.00578  -0.03943
           Y4           0.00475  -0.30440  -0.00000  -0.01446  -0.01720
           Z4           0.00000  -0.00000  -0.06396  -0.00000  -0.00000
           X5           0.00409   0.05779   0.00000   0.00254  -0.00832
           Y5           0.00759  -0.03039  -0.00000  -0.00844   0.00250
           Z5           0.00000  -0.00000   0.00499  -0.00000   0.00000
                          Z2        X3        Y3        Z3        X4
           Z2           0.02834
           X3           0.00000   0.41542
           Y3           0.00000  -0.03539   0.62563
           Z3           0.02829  -0.00000   0.00002   0.03924
           X4          -0.00000  -0.00731   0.03773   0.00000   0.06836
           Y4          -0.00000   0.00549  -0.01754  -0.00000   0.00199
           Z4           0.02132   0.00000  -0.00000   0.01086  -0.00000
           X5          -0.00000  -0.05317  -0.07315  -0.00000  -0.00575
           Y5           0.00000  -0.02402  -0.48047  -0.00002   0.00342
           Z5          -0.00650  -0.00000  -0.00001  -0.01798   0.00000
                          Y4        Z4        X5        Y5        Z5
           Y4           0.33819
           Z4           0.00000   0.02580
           X5           0.00223   0.00000   0.05229
           Y5           0.00095  -0.00000   0.02145   0.50742
           Z5           0.00000   0.00598  -0.00000   0.00002   0.01351
 ITU=  0
     Eigenvalues ---    0.03129   0.04511   0.11256   0.23349   0.23515
     Eigenvalues ---    0.52853   0.75001   1.02819   1.73376
 Angle between quadratic step and forces=  65.35 degrees.
 Linear search not attempted -- first point.
 B after Tr=    -0.000207    0.000028   -0.000003
         Rot=    1.000000    0.000002   -0.000001    0.000008 Ang=   0.00 deg.
 Variable       Old X    -DE/DX   Delta X   Delta X   Delta X     New X
                                 (Linear)    (Quad)   (Total)
    X1       -0.25241   0.00016   0.00000   0.00001  -0.00019  -0.25260
    Y1        0.75750  -0.00003   0.00000  -0.00016  -0.00013   0.75737
    Z1        0.00005  -0.00001   0.00000  -0.00003  -0.00003   0.00002
    X2       -2.13989  -0.00010   0.00000  -0.00031  -0.00052  -2.14041
    Y2       -0.49861  -0.00005   0.00000   0.00008   0.00014  -0.49846
    Z2       -0.00002   0.00000   0.00000   0.00001   0.00001  -0.00001
    X3        2.10968  -0.00015   0.00000  -0.00026  -0.00047   2.10921
    Y3       -0.17310   0.00011   0.00000   0.00011   0.00011  -0.17299
    Z3       -0.00002   0.00000   0.00000   0.00000  -0.00000  -0.00002
    X4       -0.19972   0.00004   0.00000   0.00055   0.00039  -0.19933
    Y4        2.82419   0.00004   0.00000  -0.00004  -0.00001   2.82417
    Z4        0.00006   0.00000   0.00000   0.00003   0.00002   0.00008
    X5        1.95584   0.00004   0.00000   0.00102   0.00078   1.95662
    Y5       -1.99555  -0.00007   0.00000  -0.00010  -0.00011  -1.99566
    Z5       -0.00007  -0.00000   0.00000   0.00001   0.00001  -0.00007
         Item               Value     Threshold  Converged?
 Maximum Force            0.000163     0.000450     YES
 RMS     Force            0.000074     0.000300     YES
 Maximum Displacement     0.000783     0.001800     YES
 RMS     Displacement     0.000300     0.001200     YES
 Predicted change in Energy=-7.510829D-08
 Optimization completed.
    -- Stationary point found.
 GradGradGradGradGradGradGradGradGradGradGradGradGradGradGradGradGradGrad

 Leave Link  103 at Mon Nov 25 15:26:42 2024, MaxMem=   104857600 cpu:               0.0 elap:               0.1
 (Enter /mlatom/software/Gaussian/g16-avx2/l9999.exe)
 1\1\GINC-B003\Freq\RExternal='/mlatom/software/miniconda3/bin/python /
 mlatom/home/fatemealavi/mlatom\ZDO\C1H2O2\UNKNOWN\25-Nov-2024\0\\#p fr
 eq external='/mlatom/software/miniconda3/bin/python /mlatom/home/fatem
 ealavi/mlatom_devBranch/mlatom/interfaces/gaussian_interface.py model_
 predict_kwargs'\\e5837830-2e14-44f8-8484-5772f7198257\\0,1\C,-0.133568
 4577,0.4008522914,0.0000262986\O,-1.1323803546,-0.2638508495,-0.000010
 9878\O,1.1163944261,-0.0916000823,-0.0000079688\H,-0.1056865567,1.4944
 958737,0.000033149\H,1.0349847305,-1.0560021682,-0.0000392877\\Version
 =ES64L-G16RevA.03\HF=-0.7911948\RMSD=0.000e+00\RMSF=7.423e-05\ZeroPoin
 t=0.0338928\Thermal=0.0370642\Dipole=0.,0.,0.\PG=C01 [X(C1H2O2)]\NImag
 =0\\0.83524084,0.20038687,0.85359025,0.00000988,0.00002053,0.19082329,
 -0.53588170,-0.31264308,-0.00001524,0.64013714,-0.30150282,-0.34833443
 ,-0.00001252,0.35350317,0.32020536,-0.00001634,-0.00001392,-0.07144965
 ,0.00001760,0.00001373,0.02833920,-0.25392085,0.05816662,0.00000323,-0
 .10101511,-0.00425101,0.00000040,0.41541705,0.08878122,-0.17045873,-0.
 00000413,-0.01796613,0.04283700,0.00000054,-0.03538731,0.62563199,0.00
 000592,-0.00000424,-0.06040144,-0.00000105,0.00000039,0.02829093,-0.00
 000420,0.00001956,0.03923679,-0.04952390,-0.00369873,0.00000026,-0.005
 77866,-0.03943362,-0.00000128,-0.00730985,0.03772701,0.00000095,0.0683
 5892,0.00474570,-0.30440375,-0.00000289,-0.01445736,-0.01720496,-0.000
 00062,0.00548994,-0.01753610,-0.00000041,0.00198861,0.33819151,0.00000
 023,-0.00000001,-0.06396289,-0.00000112,-0.00000206,0.02132405,0.00000
 079,-0.00000148,0.01085517,-0.00000012,0.00000391,0.02580073,0.0040855
 9,0.05778834,0.00000187,0.00253843,-0.00831574,-0.00000038,-0.05317124
 ,-0.07315479,-0.00000163,-0.00574650,0.00223311,0.00000022,0.05229373,
 0.00758900,-0.03039331,-0.00000099,-0.00843657,0.00249706,0.00000027,-
 0.02401822,-0.48047414,-0.00001530,0.00341672,0.00095331,-0.00000036,0
 .02144908,0.50741714,0.00000032,-0.00000236,0.00499071,-0.00000020,0.0
 0000045,-0.00650453,-0.00000022,-0.00001449,-0.01798145,0.00000020,0.,
 0.00598294,-0.00000009,0.00001639,0.01351233\\-0.00016307,0.00002705,0
 .00000750,0.00009590,0.00005284,-0.00000275,0.00014663,-0.00011202,-0.
 00000217,-0.00003665,-0.00003645,-0.00000261,-0.00004280,0.00006858,0.
 00000003\\\@


 THE TEST OF A FIRST RATE INTELLIGENCE IS THE ABILITY TO HOLD TWO OPPOSED
 IDEAS IN THE MIND AT THE SAME TIME, AND STILL RETAIN THE ABILITY TO FUNCTION.
 ONE SHOULD, FOR EXAMPLE, BE ABLE TO SEE THAT THINGS ARE HOPELESS AND YET BE
 DETERMINED TO MAKE THEM OTHERWISE.

                                                       -- F. SCOTT FITZGERALD
 Job cpu time:       0 days  0 hours  0 minutes  0.4 seconds.
 Elapsed time:       0 days  0 hours  0 minutes  5.7 seconds.
 File lengths (MBytes):  RWF=     22 Int=      0 D2E=      0 Chk=      2 Scr=      2
 Normal termination of Gaussian 16 at Mon Nov 25 15:26:42 2024.
